 vasp.6.4.2 20Jul23 (build Jan 14 2026 17:23:08) complex                         
 executed on             LinuxGNU date 2026.04.15  10:49:35
 running   16 mpi-ranks, with    1 threads/rank, on    1 nodes
 distrk:  each k-point on    8 cores,    2 groups
 distr:  one band on NCORE=   1 cores,    8 groups


--------------------------------------------------------------------------------------------------------


 INCAR:
   SYSTEM = BSE
   PREC = Normal
   ENCUT = 450
   ALGO = EVGW0
   ISMEAR = 0
   SIGMA = 0.05
   NELM = 1
   NBANDS = 256
   NOMEGA = 96
   LWAVE = .TRUE.
   LSPECTRAL = .TRUE.
   LOPTICS = .TRUE.
   KPAR = 2

 POTCAR:    PAW_PBE Zr_sv 04Jan2005               
 POTCAR:    PAW_PBE P 06Sep2000                   
 POTCAR:    PAW_PBE Br 06Sep2000                  
 POTCAR:    PAW_PBE Zr_sv 04Jan2005               
   VRHFIN =Zr: 4s4p5s4d                                                                             
   LEXCH  = PE                                                                                      
   EATOM  =  1284.2219 eV,   94.3876 Ry                                                             
                                                                                                    
   TITEL  = PAW_PBE Zr_sv 04Jan2005                                                                 
   LULTRA =        F    use ultrasoft PP ?                                                          
   IUNSCR =        1    unscreen: 0-lin 1-nonlin 2-no                                               
   RPACOR =    2.200    partial core radius                                                         
   POMASS =   91.224; ZVAL   =   12.000    mass and valenz                                          
   RCORE  =    2.500    outmost cutoff radius                                                       
   RWIGS  =    3.070; RWIGS  =    1.625    wigner-seitz radius (au A)                               
   ENMAX  =  229.898; ENMIN  =  172.424 eV                                                          
   ICORE  =        3    local potential                                                             
   LCOR   =        T    correct aug charges                                                         
   LPAW   =        T    paw PP                                                                      
   EAUG   =  461.257                                                                                
   DEXC   =    0.000                                                                                
   RMAX   =    2.561    core radius for proj-oper                                                   
   RAUG   =    1.300    factor for augmentation sphere                                              
   RDEP   =    2.597    radius for radial grids                                                     
   RDEPT  =    2.007    core radius for aug-charge                                                  
                                                                                                    
   Atomic configuration                                                                             
   11 entries                                                                                       
     n  l   j            E        occ.                                                              
     1  0  0.50    -17820.0161   2.0000                                                             
     2  0  0.50     -2467.0882   2.0000                                                             
     2  1  1.50     -2199.6095   6.0000                                                             
     3  0  0.50      -402.4863   2.0000                                                             
     3  1  1.50      -315.3675   6.0000                                                             
     3  2  2.50      -172.4472  10.0000                                                             
     4  0  0.50       -52.4146   2.0000                                                             
     5  0  0.50        -3.8421   1.0000                                                             
     4  1  1.50       -30.5054   6.0000                                                             
     4  2  2.50        -2.3341   3.0000                                                             
     4  3  2.50        -1.3606   0.0000                                                             
   Description                                                                                      
     l       E           TYP  RCUT    TYP  RCUT                                                     
     0    -52.4145962     23  2.200                                                                 
     0     -3.8421270     23  2.500                                                                 
     1    -30.5053914     23  2.200                                                                 
     1     20.4087390     23  2.200                                                                 
     2     -2.3340816     23  2.500                                                                 
     2     -0.6120942     23  2.500                                                                 
     3     -4.0817478     23  2.500                                                                 
  local pseudopotential read in
  partial core-charges read in
  partial kinetic energy density read in
  atomic valenz-charges read in
  non local Contribution for L=            0  read in
    real space projection operators read in
  non local Contribution for L=            0  read in
    real space projection operators read in
  non local Contribution for L=            1  read in
    real space projection operators read in
  non local Contribution for L=            1  read in
    real space projection operators read in
  non local Contribution for L=            2  read in
    real space projection operators read in
  non local Contribution for L=            2  read in
    real space projection operators read in
    PAW grid and wavefunctions read in
 
   number of l-projection  operators is LMAX  =            6
   number of lm-projection operators is LMMAX =           18
 
 POTCAR:    PAW_PBE P 06Sep2000                   
   VRHFIN =P : s2p3                                                                                 
   LEXCH  = PE                                                                                      
   EATOM  =   176.0430 eV,   12.9388 Ry                                                             
                                                                                                    
   TITEL  = PAW_PBE P 06Sep2000                                                                     
   LULTRA =        F    use ultrasoft PP ?                                                          
   IUNSCR =        1    unscreen: 0-lin 1-nonlin 2-no                                               
   RPACOR =    1.500    partial core radius                                                         
   POMASS =   30.974; ZVAL   =    5.000    mass and valenz                                          
   RCORE  =    1.900    outmost cutoff radius                                                       
   RWIGS  =    2.330; RWIGS  =    1.233    wigner-seitz radius (au A)                               
   ENMAX  =  255.040; ENMIN  =  191.280 eV                                                          
   ICORE  =        2    local potential                                                             
   LCOR   =        T    correct aug charges                                                         
   LPAW   =        T    paw PP                                                                      
   EAUG   =  342.924                                                                                
   DEXC   =    0.000                                                                                
   RMAX   =    1.935    core radius for proj-oper                                                   
   RAUG   =    1.300    factor for augmentation sphere                                              
   RDEP   =    1.931    radius for radial grids                                                     
   RDEPT  =    1.794    core radius for aug-charge                                                  
                                                                                                    
   Atomic configuration                                                                             
    6 entries                                                                                       
     n  l   j            E        occ.                                                              
     1  0  0.50     -2084.0982   2.0000                                                             
     2  0  0.50      -173.9859   2.0000                                                             
     2  1  1.50      -124.4865   6.0000                                                             
     3  0  0.50       -13.9692   2.0000                                                             
     3  1  0.50        -5.5067   3.0000                                                             
     3  2  1.50        -5.4423   0.0000                                                             
   Description                                                                                      
     l       E           TYP  RCUT    TYP  RCUT                                                     
     0    -13.9691527     23  1.900                                                                 
     0    -11.7794650     23  1.900                                                                 
     1     -5.5066937     23  1.900                                                                 
     1     -0.2556953     23  1.900                                                                 
     2     -5.4423304     23  1.900                                                                 
  local pseudopotential read in
  partial core-charges read in
  partial kinetic energy density read in
  atomic valenz-charges read in
  non local Contribution for L=            0  read in
    real space projection operators read in
  non local Contribution for L=            0  read in
    real space projection operators read in
  non local Contribution for L=            1  read in
    real space projection operators read in
  non local Contribution for L=            1  read in
    real space projection operators read in
    PAW grid and wavefunctions read in
 
   number of l-projection  operators is LMAX  =            4
   number of lm-projection operators is LMMAX =            8
 
 POTCAR:    PAW_PBE Br 06Sep2000                  
   VRHFIN =Br: s2p5                                                                                 
   LEXCH  = PE                                                                                      
   EATOM  =   368.4488 eV,   27.0802 Ry                                                             
                                                                                                    
   TITEL  = PAW_PBE Br 06Sep2000                                                                    
   LULTRA =        F    use ultrasoft PP ?                                                          
   IUNSCR =        1    unscreen: 0-lin 1-nonlin 2-no                                               
   RPACOR =    1.900    partial core radius                                                         
   POMASS =   79.904; ZVAL   =    7.000    mass and valenz                                          
   RCORE  =    2.100    outmost cutoff radius                                                       
   RWIGS  =    2.200; RWIGS  =    1.164    wigner-seitz radius (au A)                               
   ENMAX  =  216.285; ENMIN  =  162.214 eV                                                          
   ICORE  =        3    local potential                                                             
   LCOR   =        T    correct aug charges                                                         
   LPAW   =        T    paw PP                                                                      
   EAUG   =  503.852                                                                                
   DEXC   =    0.000                                                                                
   RMAX   =    2.139    core radius for proj-oper                                                   
   RAUG   =    1.300    factor for augmentation sphere                                              
   RDEP   =    2.186    radius for radial grids                                                     
   RDEPT  =    1.890    core radius for aug-charge                                                  
                                                                                                    
   Atomic configuration                                                                             
   10 entries                                                                                       
     n  l   j            E        occ.                                                              
     1  0  0.50    -13316.2796   2.0000                                                             
     2  0  0.50     -1732.8239   2.0000                                                             
     2  1  1.50     -1528.2193   6.0000                                                             
     3  0  0.50      -238.0460   2.0000                                                             
     3  1  1.50      -173.4609   6.0000                                                             
     3  2  2.50       -66.7132  10.0000                                                             
     4  0  0.50       -20.1334   2.0000                                                             
     4  1  0.50        -7.8591   5.0000                                                             
     4  2  2.50        -8.1635   0.0000                                                             
     4  3  2.50        -8.1635   0.0000                                                             
   Description                                                                                      
     l       E           TYP  RCUT    TYP  RCUT                                                     
     0    -20.1333652     23  2.100                                                                 
     0    -21.4939478     23  2.100                                                                 
     1     -7.8591052     23  2.100                                                                 
     1     -3.1608434     23  2.100                                                                 
     2     -8.1634956     23  2.100                                                                 
     3     -1.3605826      7  2.100                                                                 
  local pseudopotential read in
  partial core-charges read in
  partial kinetic energy density read in
  atomic valenz-charges read in
  non local Contribution for L=            0  read in
    real space projection operators read in
  non local Contribution for L=            0  read in
    real space projection operators read in
  non local Contribution for L=            1  read in
    real space projection operators read in
  non local Contribution for L=            1  read in
    real space projection operators read in
  non local Contribution for L=            2  read in
    real space projection operators read in
    PAW grid and wavefunctions read in
 
   number of l-projection  operators is LMAX  =            5
   number of lm-projection operators is LMMAX =           13
 
  PAW_PBE Zr_sv 04Jan2005               :
 energy of atom  1       EATOM=-1284.2219
 kinetic energy error for atom=    0.0057 (will be added to EATOM!!)
  PAW_PBE P 06Sep2000                   :
 energy of atom  2       EATOM= -176.0430
 kinetic energy error for atom=    0.0019 (will be added to EATOM!!)
  PAW_PBE Br 06Sep2000                  :
 energy of atom  3       EATOM= -368.4488
 kinetic energy error for atom=    0.0016 (will be added to EATOM!!)
 
 
 POSCAR: ZrPBr
  positions in direct lattice
  velocities in cartesian coordinates
 -----------------------------------------------------------------------------
|                                                                             |
|           W    W    AA    RRRRR   N    N  II  N    N   GGGG   !!!           |
|           W    W   A  A   R    R  NN   N  II  NN   N  G    G  !!!           |
|           W    W  A    A  R    R  N N  N  II  N N  N  G       !!!           |
|           W WW W  AAAAAA  RRRRR   N  N N  II  N  N N  G  GGG   !            |
|           WW  WW  A    A  R   R   N   NN  II  N   NN  G    G                |
|           W    W  A    A  R    R  N    N  II  N    N   GGGG   !!!           |
|                                                                             |
|     The default for ENCUTGWSOFT is different in this version of VASP.       |
|     If you wish to obtain identical results as using pre vasp.6.3           |
|     please manually set ENCUTGWSOFT =300 in the INCAR file.                 |
|                                                                             |
 -----------------------------------------------------------------------------

 exchange correlation table for  LEXCH =        8
   RHO(1)=    0.500       N(1)  =     2000
   RHO(2)=  100.500       N(2)  =     4000
 


--------------------------------------------------------------------------------------------------------


 ion  position               nearest neighbor table
   1  0.333  0.667  0.585-   4 2.57   4 2.57   4 2.57   3 2.65   6 2.95   6 2.95   6 2.95
   2  0.667  0.333  0.415-   3 2.57   3 2.57   3 2.57   4 2.65   5 2.95   5 2.95   5 2.95
   3  0.333  0.667  0.466-   2 2.57   2 2.57   2 2.57   1 2.65   4 2.77   4 2.77   4 2.77
   4  0.667  0.333  0.534-   1 2.57   1 2.57   1 2.57   2 2.65   3 2.77   3 2.77   3 2.77
   5  1.000  1.000  0.333-   2 2.95   2 2.95   2 2.95
   6  0.000  0.000  0.667-   1 2.95   1 2.95   1 2.95
 
  LATTYP: Found a hexagonal cell.
 ALAT       =     4.0102879089
 C/A-ratio  =     5.5364034416
  
  Lattice vectors:
  
 A1 = (   4.0102879089,   0.0000010362,   0.0000002928)
 A2 = (  -2.0051430558,   3.4730116690,  -0.0000003183)
 A3 = (   0.0000016072,  -0.0000011027,  22.2025717809)


Analysis of symmetry for initial positions (statically):
=====================================================================
 Subroutine PRICEL returns:
 Original cell was already a primitive cell.
 

 Routine SETGRP: Setting up the symmetry group for a 
 hexagonal supercell.


 Subroutine GETGRP returns: Found 12 space group operations
 (whereof 12 operations were pure point group operations)
 out of a pool of 24 trial point group operations.


The static configuration has the point symmetry D_3d.


Analysis of symmetry for dynamics (positions and initial velocities):
=====================================================================
 Subroutine PRICEL returns:
 Original cell was already a primitive cell.
 

 Routine SETGRP: Setting up the symmetry group for a 
 hexagonal supercell.


 Subroutine GETGRP returns: Found 12 space group operations
 (whereof 12 operations were pure point group operations)
 out of a pool of 24 trial point group operations.


The dynamic configuration has the point symmetry D_3d.


 Subroutine INISYM returns: Found 12 space group operations
 (whereof 12 operations are pure point group operations),
 and found     1 'primitive' translations


----------------------------------------------------------------------------------------

                                     Primitive cell                                     

  volume of cell :     309.2325

  direct lattice vectors                    reciprocal lattice vectors
     4.010287909  0.000001036  0.000000293     0.249358618  0.143967181 -0.000000011
    -2.005143056  3.473011669 -0.000000318    -0.000000074  0.287934492  0.000000014
     0.000001607 -0.000001103 22.202571781    -0.000000003  0.000000002  0.045039827

  length of vectors
     4.010287909  4.010287861 22.202571781     0.287934489  0.287934492  0.045039827

  position of ions in fractional coordinates (direct lattice)
     0.333333380  0.666666680  0.585075407
     0.666666617  0.333333326  0.414928095
     0.333333343  0.666666649  0.465594554
     0.666666657  0.333333351  0.534403595
     0.999999965  0.999999968  0.332873097
     0.000000038  0.000000026  0.667125253

  ion indices of the primitive-cell ions
   primitive index   ion index
                 1           1
                 2           2
                 3           3
                 4           4
                 5           5
                 6           6

----------------------------------------------------------------------------------------

 
 
 KPOINTS: K-Spacing Value to Generate K-Mesh: 0.02

Automatic generation of k-mesh.
 Grid dimensions read from file:
 generate k-points for:   12   12    1

 Generating k-lattice:

  Cartesian coordinates                     Fractional coordinates (reciprocal lattice)
     0.020779885  0.011997265 -0.000000001     0.083333333  0.000000000 -0.000000000
    -0.000000006  0.023994541  0.000000001    -0.000000000  0.083333333 -0.000000000
    -0.000000003  0.000000002  0.045039827     0.000000000  0.000000000  1.000000000

  Length of vectors
     0.023994541  0.023994541  0.045039827

  Shift w.r.t. Gamma in fractional coordinates (k-lattice)
     0.000000000  0.000000000  0.000000000

 
 Subroutine IBZKPT returns following result:
 ===========================================
 
 Found     19 irreducible k-points:
 
 Following reciprocal coordinates:
            Coordinates               Weight
  0.000000  0.000000  0.000000      1.000000
  0.083333  0.000000  0.000000      6.000000
  0.166667  0.000000  0.000000      6.000000
  0.250000  0.000000  0.000000      6.000000
  0.333333  0.000000  0.000000      6.000000
  0.416667  0.000000  0.000000      6.000000
  0.500000  0.000000  0.000000      3.000000
  0.083333  0.083333  0.000000      6.000000
  0.166667  0.083333  0.000000     12.000000
  0.250000  0.083333  0.000000     12.000000
  0.333333  0.083333  0.000000     12.000000
  0.416667  0.083333  0.000000     12.000000
  0.166667  0.166667  0.000000      6.000000
  0.250000  0.166667  0.000000     12.000000
  0.333333  0.166667  0.000000     12.000000
  0.416667  0.166667  0.000000      6.000000
  0.250000  0.250000  0.000000      6.000000
  0.333333  0.250000  0.000000     12.000000
  0.333333  0.333333  0.000000      2.000000
 
 Following cartesian coordinates:
            Coordinates               Weight
  0.000000  0.000000  0.000000      1.000000
  0.020780  0.011997 -0.000000      6.000000
  0.041560  0.023995 -0.000000      6.000000
  0.062340  0.035992 -0.000000      6.000000
  0.083120  0.047989 -0.000000      6.000000
  0.103899  0.059986 -0.000000      6.000000
  0.124679  0.071984 -0.000000      3.000000
  0.020780  0.035992  0.000000      6.000000
  0.041560  0.047989 -0.000000     12.000000
  0.062340  0.059986 -0.000000     12.000000
  0.083120  0.071984 -0.000000     12.000000
  0.103899  0.083981 -0.000000     12.000000
  0.041560  0.071984  0.000000      6.000000
  0.062340  0.083981 -0.000000     12.000000
  0.083120  0.095978 -0.000000     12.000000
  0.103899  0.107975 -0.000000      6.000000
  0.062340  0.107975  0.000000      6.000000
  0.083120  0.119973 -0.000000     12.000000
  0.083120  0.143967  0.000000      2.000000
 
 
 Subroutine IBZKPT_HF returns following result:
 ==============================================
 
 Found    144 k-points in 1st BZ
 the following    144 k-points will be used (e.g. in the exchange kernel)
 Following reciprocal coordinates:   # in IRBZ
  0.000000  0.000000  0.000000    0.00694444   1 t-inv F
  0.083333  0.000000  0.000000    0.00694444   2 t-inv F
  0.166667  0.000000  0.000000    0.00694444   3 t-inv F
  0.250000  0.000000  0.000000    0.00694444   4 t-inv F
  0.333333  0.000000  0.000000    0.00694444   5 t-inv F
  0.416667  0.000000  0.000000    0.00694444   6 t-inv F
  0.500000  0.000000  0.000000    0.00694444   7 t-inv F
  0.083333  0.083333  0.000000    0.00694444   8 t-inv F
  0.166667  0.083333  0.000000    0.00694444   9 t-inv F
  0.250000  0.083333  0.000000    0.00694444  10 t-inv F
  0.333333  0.083333  0.000000    0.00694444  11 t-inv F
  0.416667  0.083333  0.000000    0.00694444  12 t-inv F
  0.166667  0.166667  0.000000    0.00694444  13 t-inv F
  0.250000  0.166667  0.000000    0.00694444  14 t-inv F
  0.333333  0.166667  0.000000    0.00694444  15 t-inv F
  0.416667  0.166667  0.000000    0.00694444  16 t-inv F
  0.250000  0.250000  0.000000    0.00694444  17 t-inv F
  0.333333  0.250000  0.000000    0.00694444  18 t-inv F
  0.333333  0.333333  0.000000    0.00694444  19 t-inv F
 -0.083333 -0.000000 -0.000000    0.00694444   2 t-inv F
 -0.083333  0.083333  0.000000    0.00694444   2 t-inv F
  0.083333 -0.083333 -0.000000    0.00694444   2 t-inv F
  0.000000 -0.083333  0.000000    0.00694444   2 t-inv F
 -0.000000  0.083333 -0.000000    0.00694444   2 t-inv F
 -0.166667 -0.000000 -0.000000    0.00694444   3 t-inv F
 -0.166667  0.166667  0.000000    0.00694444   3 t-inv F
  0.166667 -0.166667 -0.000000    0.00694444   3 t-inv F
  0.000000 -0.166667  0.000000    0.00694444   3 t-inv F
 -0.000000  0.166667 -0.000000    0.00694444   3 t-inv F
 -0.250000 -0.000000 -0.000000    0.00694444   4 t-inv F
 -0.250000  0.250000  0.000000    0.00694444   4 t-inv F
  0.250000 -0.250000 -0.000000    0.00694444   4 t-inv F
  0.000000 -0.250000  0.000000    0.00694444   4 t-inv F
 -0.000000  0.250000 -0.000000    0.00694444   4 t-inv F
 -0.333333 -0.000000 -0.000000    0.00694444   5 t-inv F
 -0.333333  0.333333  0.000000    0.00694444   5 t-inv F
  0.333333 -0.333333 -0.000000    0.00694444   5 t-inv F
  0.000000 -0.333333  0.000000    0.00694444   5 t-inv F
 -0.000000  0.333333 -0.000000    0.00694444   5 t-inv F
 -0.416667 -0.000000 -0.000000    0.00694444   6 t-inv F
 -0.416667  0.416667  0.000000    0.00694444   6 t-inv F
  0.416667 -0.416667 -0.000000    0.00694444   6 t-inv F
  0.000000 -0.416667  0.000000    0.00694444   6 t-inv F
 -0.000000  0.416667 -0.000000    0.00694444   6 t-inv F
 -0.500000  0.500000  0.000000    0.00694444   7 t-inv F
  0.000000 -0.500000  0.000000    0.00694444   7 t-inv F
 -0.083333 -0.083333 -0.000000    0.00694444   8 t-inv F
 -0.166667  0.083333  0.000000    0.00694444   8 t-inv F
  0.166667 -0.083333 -0.000000    0.00694444   8 t-inv F
  0.083333 -0.166667  0.000000    0.00694444   8 t-inv F
 -0.083333  0.166667 -0.000000    0.00694444   8 t-inv F
 -0.166667 -0.083333 -0.000000    0.00694444   9 t-inv F
 -0.250000  0.166667  0.000000    0.00694444   9 t-inv F
  0.250000 -0.166667 -0.000000    0.00694444   9 t-inv F
  0.083333 -0.250000  0.000000    0.00694444   9 t-inv F
 -0.083333  0.250000 -0.000000    0.00694444   9 t-inv F
  0.166667 -0.250000 -0.000000    0.00694444   9 t-inv F
 -0.166667  0.250000  0.000000    0.00694444   9 t-inv F
 -0.250000  0.083333 -0.000000    0.00694444   9 t-inv F
  0.250000 -0.083333  0.000000    0.00694444   9 t-inv F
  0.083333  0.166667 -0.000000    0.00694444   9 t-inv F
 -0.083333 -0.166667  0.000000    0.00694444   9 t-inv F
 -0.250000 -0.083333 -0.000000    0.00694444  10 t-inv F
 -0.333333  0.250000  0.000000    0.00694444  10 t-inv F
  0.333333 -0.250000 -0.000000    0.00694444  10 t-inv F
  0.083333 -0.333333  0.000000    0.00694444  10 t-inv F
 -0.083333  0.333333 -0.000000    0.00694444  10 t-inv F
  0.250000 -0.333333 -0.000000    0.00694444  10 t-inv F
 -0.250000  0.333333  0.000000    0.00694444  10 t-inv F
 -0.333333  0.083333 -0.000000    0.00694444  10 t-inv F
  0.333333 -0.083333  0.000000    0.00694444  10 t-inv F
  0.083333  0.250000 -0.000000    0.00694444  10 t-inv F
 -0.083333 -0.250000  0.000000    0.00694444  10 t-inv F
 -0.333333 -0.083333 -0.000000    0.00694444  11 t-inv F
 -0.416667  0.333333  0.000000    0.00694444  11 t-inv F
  0.416667 -0.333333 -0.000000    0.00694444  11 t-inv F
  0.083333 -0.416667  0.000000    0.00694444  11 t-inv F
 -0.083333  0.416667 -0.000000    0.00694444  11 t-inv F
  0.333333 -0.416667 -0.000000    0.00694444  11 t-inv F
 -0.333333  0.416667  0.000000    0.00694444  11 t-inv F
 -0.416667  0.083333 -0.000000    0.00694444  11 t-inv F
  0.416667 -0.083333  0.000000    0.00694444  11 t-inv F
  0.083333  0.333333 -0.000000    0.00694444  11 t-inv F
 -0.083333 -0.333333  0.000000    0.00694444  11 t-inv F
 -0.416667 -0.083333 -0.000000    0.00694444  12 t-inv F
 -0.500000  0.416667  0.000000    0.00694444  12 t-inv F
  0.500000 -0.416667 -0.000000    0.00694444  12 t-inv F
  0.083333 -0.500000  0.000000    0.00694444  12 t-inv F
 -0.083333  0.500000 -0.000000    0.00694444  12 t-inv F
  0.416667 -0.500000 -0.000000    0.00694444  12 t-inv F
 -0.416667  0.500000  0.000000    0.00694444  12 t-inv F
 -0.500000  0.083333 -0.000000    0.00694444  12 t-inv F
  0.500000 -0.083333  0.000000    0.00694444  12 t-inv F
  0.083333  0.416667 -0.000000    0.00694444  12 t-inv F
 -0.083333 -0.416667  0.000000    0.00694444  12 t-inv F
 -0.166667 -0.166667 -0.000000    0.00694444  13 t-inv F
 -0.333333  0.166667  0.000000    0.00694444  13 t-inv F
  0.333333 -0.166667 -0.000000    0.00694444  13 t-inv F
  0.166667 -0.333333  0.000000    0.00694444  13 t-inv F
 -0.166667  0.333333 -0.000000    0.00694444  13 t-inv F
 -0.250000 -0.166667 -0.000000    0.00694444  14 t-inv F
 -0.416667  0.250000  0.000000    0.00694444  14 t-inv F
  0.416667 -0.250000 -0.000000    0.00694444  14 t-inv F
  0.166667 -0.416667  0.000000    0.00694444  14 t-inv F
 -0.166667  0.416667 -0.000000    0.00694444  14 t-inv F
  0.250000 -0.416667 -0.000000    0.00694444  14 t-inv F
 -0.250000  0.416667  0.000000    0.00694444  14 t-inv F
 -0.416667  0.166667 -0.000000    0.00694444  14 t-inv F
  0.416667 -0.166667  0.000000    0.00694444  14 t-inv F
  0.166667  0.250000 -0.000000    0.00694444  14 t-inv F
 -0.166667 -0.250000  0.000000    0.00694444  14 t-inv F
 -0.333333 -0.166667 -0.000000    0.00694444  15 t-inv F
 -0.500000  0.333333  0.000000    0.00694444  15 t-inv F
  0.500000 -0.333333 -0.000000    0.00694444  15 t-inv F
  0.166667 -0.500000  0.000000    0.00694444  15 t-inv F
 -0.166667  0.500000 -0.000000    0.00694444  15 t-inv F
  0.333333 -0.500000 -0.000000    0.00694444  15 t-inv F
 -0.333333  0.500000  0.000000    0.00694444  15 t-inv F
 -0.500000  0.166667 -0.000000    0.00694444  15 t-inv F
  0.500000 -0.166667  0.000000    0.00694444  15 t-inv F
  0.166667  0.333333 -0.000000    0.00694444  15 t-inv F
 -0.166667 -0.333333  0.000000    0.00694444  15 t-inv F
 -0.416667 -0.166667 -0.000000    0.00694444  16 t-inv F
 -0.583333  0.416667  0.000000    0.00694444  16 t-inv F
  0.583333 -0.416667 -0.000000    0.00694444  16 t-inv F
  0.166667 -0.583333  0.000000    0.00694444  16 t-inv F
 -0.166667  0.583333 -0.000000    0.00694444  16 t-inv F
 -0.250000 -0.250000 -0.000000    0.00694444  17 t-inv F
 -0.500000  0.250000  0.000000    0.00694444  17 t-inv F
  0.500000 -0.250000 -0.000000    0.00694444  17 t-inv F
  0.250000 -0.500000  0.000000    0.00694444  17 t-inv F
 -0.250000  0.500000 -0.000000    0.00694444  17 t-inv F
 -0.333333 -0.250000 -0.000000    0.00694444  18 t-inv F
 -0.583333  0.333333  0.000000    0.00694444  18 t-inv F
  0.583333 -0.333333 -0.000000    0.00694444  18 t-inv F
  0.250000 -0.583333  0.000000    0.00694444  18 t-inv F
 -0.250000  0.583333 -0.000000    0.00694444  18 t-inv F
  0.333333 -0.583333 -0.000000    0.00694444  18 t-inv F
 -0.333333  0.583333  0.000000    0.00694444  18 t-inv F
 -0.583333  0.250000 -0.000000    0.00694444  18 t-inv F
  0.583333 -0.250000  0.000000    0.00694444  18 t-inv F
  0.250000  0.333333 -0.000000    0.00694444  18 t-inv F
 -0.250000 -0.333333  0.000000    0.00694444  18 t-inv F
 -0.333333 -0.333333 -0.000000    0.00694444  19 t-inv F


--------------------------------------------------------------------------------------------------------




 Dimension of arrays:
   k-points           NKPTS =     19   k-points in BZ     NKDIM =    144   number of bands    NBANDS=    256
   number of dos      NEDOS =    301   number of ions     NIONS =      6
   non local maximal  LDIM  =      6   non local SUM 2l+1 LMDIM =     18
   total plane-waves  NPLWV =  69120
   max r-space proj   IRMAX =      1   max aug-charges    IRDMAX=   9493
   dimension x,y,z NGX =    24 NGY =   24 NGZ =  120
   dimension x,y,z NGXF=    48 NGYF=   48 NGZF=  240
   support grid    NGXF=    48 NGYF=   48 NGZF=  240
   ions per type =               2   2   2
   NGX,Y,Z   is equivalent  to a cutoff of   9.95,  9.95,  8.99 a.u.
   NGXF,Y,Z  is equivalent  to a cutoff of  19.90, 19.90, 17.97 a.u.

 SYSTEM =  BSE                                     
 POSCAR =  ZrPBr                                   

 Startparameter for this run:
   NWRITE =      2    write-flag & timer
   PREC   = normal    normal or accurate (medium, high low for compatibility)
   ISTART =      1    job   : 0-new  1-cont  2-samecut
   ICHARG =      0    charge: 1-file 2-atom 10-const
   ISPIN  =      1    spin polarized calculation?
   LNONCOLLINEAR =      F non collinear calculations
   LSORBIT =      F    spin-orbit coupling
   INIWAV =      1    electr: 0-lowe 1-rand  2-diag
   LASPH  =      F    aspherical Exc in radial PAW
 Electronic Relaxation 1
   ENCUT  =  450.0 eV  33.07 Ry    5.75 a.u.   6.94  6.94 38.40*2*pi/ulx,y,z
   ENINI  =  450.0     initial cutoff
   ENAUG  =  503.9 eV  augmentation charge cutoff
   NELM   =      1;   NELMIN=  2; NELMDL=  0     # of ELM steps 
   EDIFF  = 0.1E-03   stopping-criterion for ELM
   LREAL  =      F    real-space projection
   NLSPLINE    = F    spline interpolate recip. space projectors
   LCOMPAT=      F    compatible to vasp.4.4
   GGA_COMPAT  = T    GGA compatible to vasp.4.4-vasp.4.6
   LMAXPAW     = -100 max onsite density
   LMAXMIX     =    2 max onsite mixed and CHGCAR
   VOSKOWN=      0    Vosko Wilk Nusair interpolation
   ROPT   =    0.00000   0.00000   0.00000
 Ionic relaxation
   EDIFFG = 0.1E-02   stopping-criterion for IOM
   NSW    =      0    number of steps for IOM
   NBLOCK =      1;   KBLOCK =      1    inner block; outer block 
   IBRION =     -1    ionic relax: 0-MD 1-quasi-New 2-CG
   NFREE  =      0    steps in history (QN), initial steepest desc. (CG)
   ISIF   =      0    stress and relaxation
   IWAVPR =     10    prediction:  0-non 1-charg 2-wave 3-comb
   ISYM   =      3    0-nonsym 1-usesym 2-fastsym
   LCORR  =      T    Harris-Foulkes like correction to forces

   POTIM  = 0.5000    time-step for ionic-motion
   TEIN   =    0.0    initial temperature
   TEBEG  =    0.0;   TEEND  =   0.0 temperature during run
   SMASS  =  -3.00    Nose mass-parameter (am)
   estimated Nose-frequenzy (Omega)   =  0.10E-29 period in steps = 0.13E+47 mass=  -0.368E-27a.u.
   SCALEE = 1.0000    scale energy and forces
   NPACO  =    256;   APACO  = 10.0  distance and # of slots for P.C.
   PSTRESS=    0.0 pullay stress

  Mass of Ions in am
   POMASS =  91.22 30.97 79.90
  Ionic Valenz
   ZVAL   =  12.00  5.00  7.00
  Atomic Wigner-Seitz radii
   RWIGS  =  -1.00 -1.00 -1.00
  virtual crystal weights 
   VCA    =   1.00  1.00  1.00
   NELECT =      48.0000    total number of electrons
   NUPDOWN=      -1.0000    fix difference up-down

 DOS related values:
   EMIN   =  10.00;   EMAX   =-10.00  energy-range for DOS
   EFERMI =   0.00;   METHOD = LEGACY      
   ISMEAR =     0;   SIGMA  =   0.05  broadening in eV -4-tet -1-fermi 0-gaus

 Electronic relaxation 2 (details)
   IALGO  =     38    algorithm
   LDIAG  =      T    sub-space diagonalisation (order eigenvalues)
   LSUBROT=      F    optimize rotation matrix (better conditioning)
   TURBO    =      0    0=normal 1=particle mesh
   IRESTART =      0    0=no restart 2=restart with 2 vectors
   NREBOOT  =      0    no. of reboots
   NMIN     =      0    reboot dimension
   EREF     =   0.00    reference energy to select bands
   IMIX   =      4    mixing-type and parameters
     AMIX     =   0.40;   BMIX     =  1.00
     AMIX_MAG =   1.60;   BMIX_MAG =  1.00
     AMIN     =   0.10
     WC   =   100.;   INIMIX=   1;  MIXPRE=   1;  MAXMIX= -45

 Intra band minimization:
   WEIMIN = 0.0000     energy-eigenvalue tresh-hold
   EBREAK =  0.98E-07  absolut break condition
   DEPER  =   0.30     relativ break condition  

   TIME   =   0.40     timestep for ELM

  volume/ion in A,a.u.               =      51.54       347.80
  Fermi-wavevector in a.u.,A,eV,Ry     =   0.879819  1.662618 10.532027  0.774082
  Thomas-Fermi vector in A             =   2.000095
 
 Write flags
   LWAVE        =      T    write WAVECAR
   LDOWNSAMPLE  =      F    k-point downsampling of WAVECAR
   LCHARG       =      T    write CHGCAR
   LVTOT        =      F    write LOCPOT, total local potential
   LVHAR        =      F    write LOCPOT, Hartree potential only
   LELF         =      F    write electronic localiz. function (ELF)
   LORBIT       =      0    0 simple, 1 ext, 2 COOP (PROOUT), +10 PAW based schemes


 Dipole corrections
   LMONO  =      F    monopole corrections only (constant potential shift)
   LDIPOL =      F    correct potential (dipole corrections)
   IDIPOL =      0    1-x, 2-y, 3-z, 4-all directions 
   EPSILON=  1.0000000 bulk dielectric constant

 Exchange correlation treatment:
   GGA     =    --    GGA type
   LEXCH   =     8    internal setting for exchange type
   LIBXC   =     F    Libxc                    
   VOSKOWN =     0    Vosko Wilk Nusair interpolation
   EXXOEP  =     0    0=HF, 1=EXX-LHF (local Hartree Fock) 2=EXX OEP
   LHFCALC =     T    Hartree Fock is set to
   LSYMGRAD=     F    symmetrize gradient (conserves proper symmetry)
   PRECFOCK=normal    Normal, Fast or Accurate (Low or Medium for compatibility)
   LRHFCALC=     F    long range Hartree Fock
   LRSCOR  =     F    long range correlation only (use DFT for short range part)
   LTHOMAS =     F    Thomas Fermi screening in HF
   LMODELHF=     F    short range full HF, long range fraction AEXX
   FOCKCORR=     2    mode to apply convergence corrections
   LFOCKACE=     T    use Adeptively-Compressed-Exchange operator
   ENCUT4O =  -1.0   cutoff for four orbital integrals eV
   LMAXFOCK=     4    L truncation for augmentation on plane wave grid
   LMAXFOCKAE=   4    L truncation for all-electron charge restoration on plane wave grid
   NMAXFOCKAE=   1    number of basis functions for all-electron charge restoration
   LFOCKAEDFT=     F  apply the AE augmentation even for DFT
   NKREDX  =     1    reduce k-point grid by
   NKREDY  =     1    reduce k-point grid by
   NKREDZ  =     1    reduce k-point grid by
   SHIFTRED=     F    shift reduced grid of Gamma
   HFKIDENT=     F    idential grid for each k-point
   ODDONLY =     F    use only odd q-grid points
   EVENONLY=     F    use only even q-grid points
   HFALPHA =   -1.0000 decay constant for conv. correction
   MCALPHA =    0.0000 extent of test-charge in conv. correction in multipole expansion
   AEXX    =    1.0000 exact exchange contribution
   HFSCREEN=    0.0000 screening length (either q_TF or 0.3 A-1)
   HFSCREENC=   0.0000 screening length for correlation (either q_TF or 0.3 A-1)
   HFRCUT  =    0.0000 spherical cutoff for potential kernel
   ALDAX   =    0.0000 LDA exchange part
   AGGAX   =    0.0000 GGA exchange part
   ALDAC   =    0.0000 LDA correlation
   AGGAC   =    0.0000 GGA correlation
   ENCUTFOCK=  -1.0 apply spherical cutoff to Coloumb kernel
   NBANDSGWLOW=     1    first orbital included in HF term
   NBLOCK_FOCK=    64    blocking factor in FOCK_ACC

 Linear response parameters
   LEPSILON=     F    determine dielectric tensor
   LRPA    =     F    only Hartree local field effects (RPA)
   LNABLA  =     F    use nabla operator in PAW spheres
   LVEL    =     F    velocity operator in full k-point grid
   CSHIFT  =0.1000    complex shift for real part using Kramers Kronig
   OMEGAMAX=  -1.0    maximum frequency
   DEG_THRESHOLD= 0.2000000E-02 threshold for treating states as degnerate
   RTIME   =   -0.100 relaxation time in fs
  (WPLASMAI=    0.000 imaginary part of plasma frequency in eV, 0.658/RTIME)
   DFIELD  = 0.0000000 0.0000000 0.0000000 field for delta impulse in time
 
  Optional k-point grid parameters
   LKPOINTS_OPT  =     F    use optional k-point grid
   KPOINTS_OPT_MODE=     1    mode for optional k-point grid
 
 Orbital magnetization related:
   ORBITALMAG=     F  switch on orbital magnetization
   LCHIMAG   =     F  perturbation theory with respect to B field
   DQ        =  0.001000  dq finite difference perturbation B field
   LLRAUG    =     F  two centre corrections for induced B field
   LBONE     =     F  B-component reconstruction in AE one-centre
   LVGVCALC  =     T  calculate vGv susceptibility
   LVGVAPPL  =     F  apply vGv susceptibility instead of pGv for G=0

 Response functions by sum over occupied states:
   ALGO                =  EVGW0   selected many-body perturbation algorithm
   LALL_IN_ONE         =     F    all in one mode selected?
   IALL_IN_ONE         =    -1    all in one mode id
   NBANDS_WAVE         =    -1    number of bands written to file
   LFINITE_TEMPERATURE =     F    use finite temperature formalism
   LFXC                =     F    include DFT xc kernel in TD-HF and W
   LADDER              =     F    particle hole ladder diagrams for BSE/TD-HF and W (Nano-quanta)
   LRPAFORCE           =     F    calculate RPA forces
   LHARTREE            =     T    include Hartree terms (bubbles-RPA) in BSE/TD-HF
   IBSE                =     0    BSE modus: 0 exact, 1 time-evolution (store matrix), 10 time-evolution (implicit)
   KPOINT              =    -1   0   0   0    k-point index at which BSE equation is solved (and G at which response is eval.)
   LTRIPLET            =     F    triplet instead of singlet excitation (BSE only)
   LRSRPA              =     F    range separated RPA (total - short) in ACFDT
   LTCTC               =     F    use test-charge test-charge for self-energy (with ALGO=QPBSE)
   LTCTE               =     F    use test-charge test-electron dielectric function
   LTETE               =     F    use test-electron test-electron dielectric function
   LFXCEPS             =     F    determine f_xc=epsilon-1/Xi Sharma and Gross kernel
   LFXHEG              =     F    model exchange using f_x(G,k_F) from free electron gas
   NATURALO            =     2    0 natural orbitals, 1 only virtual, 2 only occupied-virtual rotation
   LHOLEGF             =     F    use holes in self-consistent GW 
   L2ORDER             =     F    2nd order terms only
   LDMP1               =     F    first order term in ACFDT routine is calculated
   LMP2LT              =     F    use LT MP2
   LSMP2LT             =     F    use stochastic LT MP2
   LGWLF               =     F    use W potentials for exchange like diagrams
   ENCUTGW             = 300.0    cutoff for response function in eV
   ENCUTGWSOFT         = 240.0    soft cutoff for Coulomb kernel in GW response function in eV
   ENCUTLF             =  -1.0    cutoff for local field effects
   LESF_SPLINES        =     F    tricubic splines for electronic structure factor S(q+G)
   LMAXMP2             =    -1    maximum L for one center terms
   SCISSOR             =   0.0    scissor correction
   NOMEGA              =    96    number of frequencies
   NOMEGAR             =    96    number of frequencies along real axis
   NBANDSGW            =    -1    number of bands for which selfenergy shift is calculated
   NBANDSGWLOW         =     1    lowest band included in GW (to exclude core correlation)
   NBANDSO             =    -1    number of bands for electron-hole treatment (occupied)
   NBANDSV             =    -1    number of bands for electron-hole treatment (virtual)
   NELMGW              =     1    number of iterations in solving QP/BSE equation
   NELMHF              =     1    number of iterations in the inner HF iteration
   DIM                 =     3    dimensionality of system (0=0D molecules, 3=3D)
   IEPSILON            =     4    cartesion direction for which dielectric function is calculated (4=all)
   ANTIRES             =     0    antiresonant part (0) no TDA (1) w=0 exact (2) accurate
   OMEGAMAX            = -30.0    maximum frequency
   OMEGAMIN            = -30.0    minimum frequency
   OMEGATL             =-200.0    maximum frequency of tail
   OMEGAGRID           =     0    grid type (0 default)
   CSHIFT              =  -0.1    complex shift used in evaluation of response functions
   LSELFENERGY         =     F    calculate selfenergy instead of QP shifts
   LSPECTRAL           =     T    use spectral functions                   
   LSPECTRALGW         =     F    use spectral functions to calculate int dz G(w-z) W(z) (more accurate)
   LSINGLES            =     F    calculate the singles contribution to the correlation energy
   LFERMIGW            =     F    update Fermi-energy in the Greens function

   ODDONLYGW           =     F    avoid all even points for polarizability 
   EVENONLYGW          =     F    avoid all odd  points for polarizability 
   NKREDLFX            =     1    NKREDLFY  =   1   NKREDLFZ  =   1

   TELESCOPE           =     0    use telescope k-point sampling
   NTAUPAR             =    -1    number of TAU groups used in imaginary time calculation
   NOMEGAPAR           =    -1    number of OMEGA groups used in imaginary frequency calculation
   DAMP_NEWTON         =0.8000    damping for Newton step for position update when RPA forces are used

 Random number generation:
   RANDOM_GENERATOR = DEFAULT
   PCG_SEED         = not used


--------------------------------------------------------------------------------------------------------


 Static calculation
 charge density and potential will be updated during run
 non-spin polarized calculation
 Variant of blocked Davidson
 Davidson routine will perform the subspace rotation
 perform sub-space diagonalisation
    after iterative eigenvector-optimisation
 modified Broyden-mixing scheme, WC =      100.0
 initial mixing is a Kerker type mixing with AMIX =  0.4000 and BMIX =      1.0000
 Hartree-type preconditioning will be used
 using additional bands           232
 reciprocal scheme for non local part
 use partial core corrections
 calculate Harris-corrections to forces 
   (improved forces if not selfconsistent)
 use gradient corrections 
 use of overlap-Matrix (Vanderbilt PP)
 Gauss-broadening in eV      SIGMA  =   0.05


--------------------------------------------------------------------------------------------------------


  energy-cutoff  :      450.00
  volume of cell :      309.23
      direct lattice vectors                 reciprocal lattice vectors
     4.010287909  0.000001036  0.000000293     0.249358618  0.143967181 -0.000000011
    -2.005143056  3.473011669 -0.000000318    -0.000000074  0.287934492  0.000000014
     0.000001607 -0.000001103 22.202571781    -0.000000003  0.000000002  0.045039827

  length of vectors
     4.010287909  4.010287861 22.202571781     0.287934489  0.287934492  0.045039827


 
 old parameters found on file WAVECAR:
  energy-cutoff  :      450.00
  volume of cell :      309.23
      direct lattice vectors                 reciprocal lattice vectors
     4.010287909  0.000001036  0.000000293     0.249358618  0.143967181 -0.000000011
    -2.005143056  3.473011669 -0.000000318    -0.000000074  0.287934492  0.000000014
     0.000001607 -0.000001103 22.202571781    -0.000000003  0.000000002  0.045039827

  length of vectors

 
 k-points in units of 2pi/SCALE and weight: K-Spacing Value to Generate K-Mesh: 0.02
   0.00000000  0.00000000  0.00000000       0.007
   0.02077988  0.01199727 -0.00000000       0.042
   0.04155977  0.02399453 -0.00000000       0.042
   0.06233965  0.03599180 -0.00000000       0.042
   0.08311954  0.04798906 -0.00000000       0.042
   0.10389942  0.05998633 -0.00000000       0.042
   0.12467931  0.07198359 -0.00000001       0.021
   0.02077988  0.03599181  0.00000000       0.042
   0.04155976  0.04798907 -0.00000000       0.083
   0.06233965  0.05998634 -0.00000000       0.083
   0.08311953  0.07198360 -0.00000000       0.083
   0.10389942  0.08398087 -0.00000000       0.083
   0.04155976  0.07198361  0.00000000       0.042
   0.06233964  0.08398088 -0.00000000       0.083
   0.08311953  0.09597814 -0.00000000       0.083
   0.10389941  0.10797541 -0.00000000       0.042
   0.06233964  0.10797542  0.00000000       0.042
   0.08311952  0.11997268 -0.00000000       0.083
   0.08311951  0.14396722  0.00000000       0.014
 
 k-points in reciprocal lattice and weights: K-Spacing Value to Generate K-Mesh: 0.02
   0.00000000  0.00000000  0.00000000       0.007
   0.08333333  0.00000000  0.00000000       0.042
   0.16666667  0.00000000  0.00000000       0.042
   0.25000000  0.00000000  0.00000000       0.042
   0.33333333  0.00000000  0.00000000       0.042
   0.41666667  0.00000000  0.00000000       0.042
   0.50000000  0.00000000  0.00000000       0.021
   0.08333333  0.08333333  0.00000000       0.042
   0.16666667  0.08333333  0.00000000       0.083
   0.25000000  0.08333333  0.00000000       0.083
   0.33333333  0.08333333  0.00000000       0.083
   0.41666667  0.08333333  0.00000000       0.083
   0.16666667  0.16666667  0.00000000       0.042
   0.25000000  0.16666667  0.00000000       0.083
   0.33333333  0.16666667  0.00000000       0.083
   0.41666667  0.16666667  0.00000000       0.042
   0.25000000  0.25000000  0.00000000       0.042
   0.33333333  0.25000000  0.00000000       0.083
   0.33333333  0.33333333  0.00000000       0.014
 
 position of ions in fractional coordinates (direct lattice) 
   0.33333338  0.66666668  0.58507541
   0.66666662  0.33333333  0.41492809
   0.33333334  0.66666665  0.46559455
   0.66666666  0.33333335  0.53440360
   0.99999997  0.99999997  0.33287310
   0.00000004  0.00000003  0.66712525
 
 position of ions in cartesian coordinates  (Angst):
   0.00000170  2.31534086 12.99017860
   2.00514474  1.15767076  9.21247089
   0.00000142  2.31534088 10.33739639
   2.00514504  1.15767072 11.86513427
   2.00514531  3.47301223  7.39063880
   0.00000117 -0.00000064 14.81189632
 


--------------------------------------------------------------------------------------------------------


 k-point   1 :   0.0000 0.0000 0.0000  plane waves:    6611
 k-point   2 :   0.0833 0.0000 0.0000  plane waves:    6616
 k-point   3 :   0.1667 0.0000 0.0000  plane waves:    6670
 k-point   4 :   0.2500 0.0000 0.0000  plane waves:    6672
 k-point   5 :   0.3333 0.0000 0.0000  plane waves:    6718
 k-point   6 :   0.4167 0.0000 0.0000  plane waves:    6716
 k-point   7 :   0.5000 0.0000 0.0000  plane waves:    6714
 k-point   8 :   0.0833 0.0833 0.0000  plane waves:    6645
 k-point   9 :   0.1667 0.0833 0.0000  plane waves:    6681
 k-point  10 :   0.2500 0.0833 0.0000  plane waves:    6706
 k-point  11 :   0.3333 0.0833 0.0000  plane waves:    6726
 k-point  12 :   0.4167 0.0833 0.0000  plane waves:    6717
 k-point  13 :   0.1667 0.1667 0.0000  plane waves:    6719
 k-point  14 :   0.2500 0.1667 0.0000  plane waves:    6719
 k-point  15 :   0.3333 0.1667 0.0000  plane waves:    6725
 k-point  16 :   0.4167 0.1667 0.0000  plane waves:    6705
 k-point  17 :   0.2500 0.2500 0.0000  plane waves:    6761
 k-point  18 :   0.3333 0.2500 0.0000  plane waves:    6718
 k-point  19 :   0.3333 0.3333 0.0000  plane waves:    6699

 maximum and minimum number of plane-waves per node :      6761     6611

 maximum number of plane-waves:      6761
 maximum index in each direction: 
   IXMAX=    6   IYMAX=    6   IZMAX=   38
   IXMIN=   -7   IYMIN=   -7   IZMIN=  -38


 serial   3D FFT for wavefunctions
 parallel 3D FFT for charge:
    minimum data exchange during FFTs selected (reduces bandwidth)

 
 Radii for the augmentation spheres in the non-local exchange
 for species   1 augmentation radius   1.064 (default was   1.064)
 error exchange integrals (PW-AE in eV) (mean, max) 0.271 1.707 density error[0,qmax] 0.0122
 for species   2 augmentation radius   0.959 (default was   0.959)
 error exchange integrals (PW-AE in eV) (mean, max) 0.158 0.446 density error[0,qmax] 0.0073
 for species   3 augmentation radius   1.018 (default was   1.018)
 error exchange integrals (PW-AE in eV) (mean, max) 0.221 0.763 density error[0,qmax] 0.0082
 Maximum index for augmentation-charges in exchange          1115
  SETUP_FOCK is finished

 total amount of memory used by VASP MPI-rank0   165371. kBytes
=======================================================================

   base      :      30000. kBytes
   nonl-proj :      56201. kBytes
   fftplans  :       2618. kBytes
   grid      :       7225. kBytes
   one-center:         93. kBytes
   HF        :        388. kBytes
   nonlr-proj:       2229. kBytes
   wavefun   :      66617. kBytes
 
     INWAV:  cpu time      0.5394: real time      0.5492
 Broyden mixing: mesh for mixing (old mesh)
   NGX = 13   NGY = 13   NGZ = 77
  (NGX  = 48   NGY  = 48   NGZ  =240)
  gives a total of  13013 points

 charge density for first step will be calculated from the start-wavefunctions


--------------------------------------------------------------------------------------------------------


 Maximum index for augmentation-charges          1099 (set IRDMAX)


--------------------------------------------------------------------------------------------------------


 initial charge from wavefunction
    FEWALD:  cpu time      0.0001: real time      0.0001
 available memory per node:    1.41 GB, setting MAXMEM to    1440

 The Fermi energy was updated, please check that it is located mid-gap
 values below the HOMO (VB) or above the LUMO (CB) will cause erroneous energies
 E-fermi :   0.2096

 Response functions by sum over occupied states:
 ===============================================
   NOMEGA  =    96    number of frequencies
   NOMEGAR =    96    number of frequencies along real axis
   OMEGAMAX=  37.74   maximum frequency
   OMEGAMIN=   0.45   minimum frequency
   OMEGATL = 133.82   maximum frequency of tail
   CSHIFT  =  0.511   complex shift used in evaluation of response functions


 Energies iw= 
 ============
    0.000    0.000    0.387    0.000    0.774    0.000    1.160    0.000
    1.545    0.000    1.928    0.000    2.310    0.000    2.689    0.000
    3.067    0.000    3.442    0.000    3.814    0.000    4.183    0.000
    4.549    0.000    4.912    0.000    5.272    0.000    5.628    0.000
    5.981    0.000    6.332    0.000    6.679    0.000    7.023    0.000
    7.364    0.000    7.702    0.000    8.037    0.000    8.371    0.000
    8.701    0.000    9.030    0.000    9.357    0.000    9.682    0.000
   10.006    0.000   10.329    0.000   10.650    0.000   10.971    0.000
   11.292    0.000   11.613    0.000   11.934    0.000   12.256    0.000
   12.578    0.000   12.902    0.000   13.227    0.000   13.555    0.000
   13.885    0.000   14.217    0.000   14.553    0.000   14.892    0.000
   15.235    0.000   15.583    0.000   15.936    0.000   16.295    0.000
   16.660    0.000   17.031    0.000   17.410    0.000   17.797    0.000
   18.193    0.000   18.599    0.000   19.015    0.000   19.443    0.000
   19.883    0.000   20.337    0.000   20.806    0.000   21.291    0.000
   21.794    0.000   22.315    0.000   22.858    0.000   23.424    0.000
   24.014    0.000   24.632    0.000   25.280    0.000   25.961    0.000
   26.678    0.000   27.436    0.000   28.238    0.000   29.089    0.000
   29.994    0.000   30.961    0.000   31.996    0.000   33.107    0.000
   34.304    0.000   35.599    0.000   37.005    0.000   38.537    0.000
   40.215    0.000   42.060    0.000   44.101    0.000   46.370    0.000
   48.909    0.000   51.768    0.000   55.014    0.000   58.730    0.000
   63.026    0.000   68.047    0.000   73.994    0.000   81.143    0.000
   89.898    0.000  100.861    0.000  114.977    0.000  133.821    0.000
 

IMPORTANT INFORMATION: All symmetrisations will be switched off!
NOSYMM: (Re-)initialisation of all symmetry stuff for point group C_1.

 
 KPOINTS: K-Spacing Value to Generate K-Mesh: 0.02

Automatic generation of k-mesh.
 Grid dimensions read from file:
 generate k-points for:   12   12    1

 Generating k-lattice:

  Cartesian coordinates                     Fractional coordinates (reciprocal lattice)
     0.020779885  0.011997265 -0.000000001     0.083333333  0.000000000 -0.000000000
    -0.000000006  0.023994541  0.000000001    -0.000000000  0.083333333 -0.000000000
    -0.000000003  0.000000002  0.045039827     0.000000000  0.000000000  1.000000000

  Length of vectors
     0.023994541  0.023994541  0.045039827

  Shift w.r.t. Gamma in fractional coordinates (k-lattice)
     0.000000000  0.000000000  0.000000000

 
 Subroutine IBZKPT returns following result:
 ===========================================
 
 Found    144 irreducible k-points:
 
 Following reciprocal coordinates:
            Coordinates               Weight
  0.000000  0.000000  0.000000      1.000000
  0.083333  0.000000  0.000000      1.000000
 -0.083333  0.000000  0.000000      1.000000
  0.000000  0.083333  0.000000      1.000000
  0.000000 -0.083333  0.000000      1.000000
 -0.083333  0.083333  0.000000      1.000000
  0.083333 -0.083333  0.000000      1.000000
  0.166667  0.000000  0.000000      1.000000
 -0.166667  0.000000  0.000000      1.000000
  0.000000  0.166667  0.000000      1.000000
  0.000000 -0.166667  0.000000      1.000000
 -0.166667  0.166667  0.000000      1.000000
  0.166667 -0.166667  0.000000      1.000000
  0.250000  0.000000  0.000000      1.000000
 -0.250000  0.000000  0.000000      1.000000
  0.000000  0.250000  0.000000      1.000000
  0.000000 -0.250000  0.000000      1.000000
 -0.250000  0.250000  0.000000      1.000000
  0.250000 -0.250000  0.000000      1.000000
  0.333333  0.000000  0.000000      1.000000
 -0.333333  0.000000  0.000000      1.000000
  0.000000  0.333333  0.000000      1.000000
  0.000000 -0.333333  0.000000      1.000000
 -0.333333  0.333333  0.000000      1.000000
  0.333333 -0.333333  0.000000      1.000000
  0.416667  0.000000  0.000000      1.000000
 -0.416667  0.000000  0.000000      1.000000
  0.000000  0.416667  0.000000      1.000000
  0.000000 -0.416667  0.000000      1.000000
 -0.416667  0.416667  0.000000      1.000000
  0.416667 -0.416667  0.000000      1.000000
  0.500000  0.000000  0.000000      1.000000
  0.000000  0.500000  0.000000      1.000000
  0.500000  0.500000  0.000000      1.000000
  0.083333  0.083333  0.000000      1.000000
 -0.083333 -0.083333  0.000000      1.000000
 -0.083333  0.166667  0.000000      1.000000
  0.083333 -0.166667  0.000000      1.000000
 -0.166667  0.083333  0.000000      1.000000
  0.166667 -0.083333  0.000000      1.000000
  0.166667  0.083333  0.000000      1.000000
 -0.166667 -0.083333  0.000000      1.000000
 -0.083333  0.250000  0.000000      1.000000
  0.083333 -0.250000  0.000000      1.000000
 -0.250000  0.166667  0.000000      1.000000
  0.250000 -0.166667  0.000000      1.000000
 -0.166667  0.250000  0.000000      1.000000
  0.166667 -0.250000  0.000000      1.000000
  0.083333  0.166667  0.000000      1.000000
 -0.083333 -0.166667  0.000000      1.000000
  0.250000 -0.083333  0.000000      1.000000
 -0.250000  0.083333  0.000000      1.000000
  0.250000  0.083333  0.000000      1.000000
 -0.250000 -0.083333  0.000000      1.000000
 -0.083333  0.333333  0.000000      1.000000
  0.083333 -0.333333  0.000000      1.000000
 -0.333333  0.250000  0.000000      1.000000
  0.333333 -0.250000  0.000000      1.000000
 -0.250000  0.333333  0.000000      1.000000
  0.250000 -0.333333  0.000000      1.000000
  0.083333  0.250000  0.000000      1.000000
 -0.083333 -0.250000  0.000000      1.000000
  0.333333 -0.083333  0.000000      1.000000
 -0.333333  0.083333  0.000000      1.000000
  0.333333  0.083333  0.000000      1.000000
 -0.333333 -0.083333  0.000000      1.000000
 -0.083333  0.416667  0.000000      1.000000
  0.083333 -0.416667  0.000000      1.000000
 -0.416667  0.333333  0.000000      1.000000
  0.416667 -0.333333  0.000000      1.000000
 -0.333333  0.416667  0.000000      1.000000
  0.333333 -0.416667  0.000000      1.000000
  0.083333  0.333333  0.000000      1.000000
 -0.083333 -0.333333  0.000000      1.000000
  0.416667 -0.083333  0.000000      1.000000
 -0.416667  0.083333  0.000000      1.000000
  0.416667  0.083333  0.000000      1.000000
 -0.416667 -0.083333  0.000000      1.000000
 -0.083333  0.500000  0.000000      1.000000
  0.083333  0.500000  0.000000      1.000000
  0.500000  0.416667  0.000000      1.000000
  0.500000 -0.416667  0.000000      1.000000
 -0.416667  0.500000  0.000000      1.000000
  0.416667  0.500000  0.000000      1.000000
  0.083333  0.416667  0.000000      1.000000
 -0.083333 -0.416667  0.000000      1.000000
  0.500000 -0.083333  0.000000      1.000000
  0.500000  0.083333  0.000000      1.000000
  0.166667  0.166667  0.000000      1.000000
 -0.166667 -0.166667  0.000000      1.000000
 -0.166667  0.333333  0.000000      1.000000
  0.166667 -0.333333  0.000000      1.000000
 -0.333333  0.166667  0.000000      1.000000
  0.333333 -0.166667  0.000000      1.000000
  0.250000  0.166667  0.000000      1.000000
 -0.250000 -0.166667  0.000000      1.000000
 -0.166667  0.416667  0.000000      1.000000
  0.166667 -0.416667  0.000000      1.000000
 -0.416667  0.250000  0.000000      1.000000
  0.416667 -0.250000  0.000000      1.000000
 -0.250000  0.416667  0.000000      1.000000
  0.250000 -0.416667  0.000000      1.000000
  0.166667  0.250000  0.000000      1.000000
 -0.166667 -0.250000  0.000000      1.000000
  0.416667 -0.166667  0.000000      1.000000
 -0.416667  0.166667  0.000000      1.000000
  0.333333  0.166667  0.000000      1.000000
 -0.333333 -0.166667  0.000000      1.000000
 -0.166667  0.500000  0.000000      1.000000
  0.166667  0.500000  0.000000      1.000000
  0.500000  0.333333  0.000000      1.000000
  0.500000 -0.333333  0.000000      1.000000
 -0.333333  0.500000  0.000000      1.000000
  0.333333  0.500000  0.000000      1.000000
  0.166667  0.333333  0.000000      1.000000
 -0.166667 -0.333333  0.000000      1.000000
  0.500000 -0.166667  0.000000      1.000000
  0.500000  0.166667  0.000000      1.000000
  0.416667  0.166667  0.000000      1.000000
 -0.416667 -0.166667  0.000000      1.000000
 -0.166667 -0.416667  0.000000      1.000000
  0.166667  0.416667  0.000000      1.000000
  0.416667  0.416667  0.000000      1.000000
 -0.416667 -0.416667  0.000000      1.000000
  0.250000  0.250000  0.000000      1.000000
 -0.250000 -0.250000  0.000000      1.000000
 -0.250000  0.500000  0.000000      1.000000
  0.250000  0.500000  0.000000      1.000000
  0.500000  0.250000  0.000000      1.000000
  0.500000 -0.250000  0.000000      1.000000
  0.333333  0.250000  0.000000      1.000000
 -0.333333 -0.250000  0.000000      1.000000
 -0.250000 -0.416667  0.000000      1.000000
  0.250000  0.416667  0.000000      1.000000
  0.416667  0.333333  0.000000      1.000000
 -0.416667 -0.333333  0.000000      1.000000
 -0.333333 -0.416667  0.000000      1.000000
  0.333333  0.416667  0.000000      1.000000
  0.250000  0.333333  0.000000      1.000000
 -0.250000 -0.333333  0.000000      1.000000
 -0.416667 -0.250000  0.000000      1.000000
  0.416667  0.250000  0.000000      1.000000
  0.333333  0.333333  0.000000      1.000000
 -0.333333 -0.333333  0.000000      1.000000
 
 Following cartesian coordinates:
            Coordinates               Weight
  0.000000  0.000000  0.000000      1.000000
  0.020780  0.011997 -0.000000      1.000000
 -0.020780 -0.011997  0.000000      1.000000
 -0.000000  0.023995  0.000000      1.000000
  0.000000 -0.023995 -0.000000      1.000000
 -0.020780  0.011997  0.000000      1.000000
  0.020780 -0.011997 -0.000000      1.000000
  0.041560  0.023995 -0.000000      1.000000
 -0.041560 -0.023995  0.000000      1.000000
 -0.000000  0.047989  0.000000      1.000000
  0.000000 -0.047989 -0.000000      1.000000
 -0.041560  0.023995  0.000000      1.000000
  0.041560 -0.023995 -0.000000      1.000000
  0.062340  0.035992 -0.000000      1.000000
 -0.062340 -0.035992  0.000000      1.000000
 -0.000000  0.071984  0.000000      1.000000
  0.000000 -0.071984 -0.000000      1.000000
 -0.062340  0.035992  0.000000      1.000000
  0.062340 -0.035992 -0.000000      1.000000
  0.083120  0.047989 -0.000000      1.000000
 -0.083120 -0.047989  0.000000      1.000000
 -0.000000  0.095978  0.000000      1.000000
  0.000000 -0.095978 -0.000000      1.000000
 -0.083120  0.047989  0.000000      1.000000
  0.083120 -0.047989 -0.000000      1.000000
  0.103899  0.059986 -0.000000      1.000000
 -0.103899 -0.059986  0.000000      1.000000
 -0.000000  0.119973  0.000000      1.000000
  0.000000 -0.119973 -0.000000      1.000000
 -0.103899  0.059986  0.000000      1.000000
  0.103899 -0.059986 -0.000000      1.000000
  0.124679  0.071984 -0.000000      1.000000
 -0.000000  0.143967  0.000000      1.000000
  0.124679  0.215951  0.000000      1.000000
  0.020780  0.035992  0.000000      1.000000
 -0.020780 -0.035992 -0.000000      1.000000
 -0.020780  0.035992  0.000000      1.000000
  0.020780 -0.035992 -0.000000      1.000000
 -0.041560  0.000000  0.000000      1.000000
  0.041560 -0.000000 -0.000000      1.000000
  0.041560  0.047989 -0.000000      1.000000
 -0.041560 -0.047989  0.000000      1.000000
 -0.020780  0.059986  0.000000      1.000000
  0.020780 -0.059986 -0.000000      1.000000
 -0.062340  0.011997  0.000000      1.000000
  0.062340 -0.011997 -0.000000      1.000000
 -0.041560  0.047989  0.000000      1.000000
  0.041560 -0.047989 -0.000000      1.000000
  0.020780  0.059986  0.000000      1.000000
 -0.020780 -0.059986 -0.000000      1.000000
  0.062340  0.011997 -0.000000      1.000000
 -0.062340 -0.011997  0.000000      1.000000
  0.062340  0.059986 -0.000000      1.000000
 -0.062340 -0.059986  0.000000      1.000000
 -0.020780  0.083981  0.000000      1.000000
  0.020780 -0.083981 -0.000000      1.000000
 -0.083120  0.023995  0.000000      1.000000
  0.083120 -0.023995 -0.000000      1.000000
 -0.062340  0.059986  0.000000      1.000000
  0.062340 -0.059986 -0.000000      1.000000
  0.020780  0.083981  0.000000      1.000000
 -0.020780 -0.083981 -0.000000      1.000000
  0.083120  0.023995 -0.000000      1.000000
 -0.083120 -0.023995  0.000000      1.000000
  0.083120  0.071984 -0.000000      1.000000
 -0.083120 -0.071984  0.000000      1.000000
 -0.020780  0.107975  0.000000      1.000000
  0.020780 -0.107975 -0.000000      1.000000
 -0.103899  0.035992  0.000000      1.000000
  0.103899 -0.035992 -0.000000      1.000000
 -0.083120  0.071984  0.000000      1.000000
  0.083120 -0.071984 -0.000000      1.000000
  0.020780  0.107975  0.000000      1.000000
 -0.020780 -0.107975 -0.000000      1.000000
  0.103899  0.035992 -0.000000      1.000000
 -0.103899 -0.035992  0.000000      1.000000
  0.103899  0.083981 -0.000000      1.000000
 -0.103899 -0.083981  0.000000      1.000000
 -0.020780  0.131970  0.000000      1.000000
  0.020780  0.155965  0.000000      1.000000
  0.124679  0.191956  0.000000      1.000000
  0.124679 -0.047989 -0.000000      1.000000
 -0.103899  0.083981  0.000000      1.000000
  0.103899  0.203954  0.000000      1.000000
  0.020780  0.131970  0.000000      1.000000
 -0.020780 -0.131970 -0.000000      1.000000
  0.124679  0.047989 -0.000000      1.000000
  0.124679  0.095978 -0.000000      1.000000
  0.041560  0.071984  0.000000      1.000000
 -0.041560 -0.071984 -0.000000      1.000000
 -0.041560  0.071984  0.000000      1.000000
  0.041560 -0.071984 -0.000000      1.000000
 -0.083120  0.000000  0.000000      1.000000
  0.083120 -0.000000 -0.000000      1.000000
  0.062340  0.083981 -0.000000      1.000000
 -0.062340 -0.083981  0.000000      1.000000
 -0.041560  0.095978  0.000000      1.000000
  0.041560 -0.095978 -0.000000      1.000000
 -0.103899  0.011997  0.000000      1.000000
  0.103899 -0.011997 -0.000000      1.000000
 -0.062340  0.083981  0.000000      1.000000
  0.062340 -0.083981 -0.000000      1.000000
  0.041560  0.095978  0.000000      1.000000
 -0.041560 -0.095978 -0.000000      1.000000
  0.103899  0.011997 -0.000000      1.000000
 -0.103899 -0.011997  0.000000      1.000000
  0.083120  0.095978 -0.000000      1.000000
 -0.083120 -0.095978  0.000000      1.000000
 -0.041560  0.119973  0.000000      1.000000
  0.041560  0.167962  0.000000      1.000000
  0.124679  0.167962 -0.000000      1.000000
  0.124679 -0.023995 -0.000000      1.000000
 -0.083120  0.095978  0.000000      1.000000
  0.083120  0.191956  0.000000      1.000000
  0.041560  0.119973  0.000000      1.000000
 -0.041560 -0.119973 -0.000000      1.000000
  0.124679  0.023995 -0.000000      1.000000
  0.124679  0.119973 -0.000000      1.000000
  0.103899  0.107975 -0.000000      1.000000
 -0.103899 -0.107975  0.000000      1.000000
 -0.041560 -0.143967 -0.000000      1.000000
  0.041560  0.143967  0.000000      1.000000
  0.103899  0.179959  0.000000      1.000000
 -0.103899 -0.179959 -0.000000      1.000000
  0.062340  0.107975  0.000000      1.000000
 -0.062340 -0.107975 -0.000000      1.000000
 -0.062340  0.107975  0.000000      1.000000
  0.062340  0.179959  0.000000      1.000000
  0.124679  0.143967 -0.000000      1.000000
  0.124679 -0.000000 -0.000000      1.000000
  0.083120  0.119973 -0.000000      1.000000
 -0.083120 -0.119973  0.000000      1.000000
 -0.062340 -0.155965 -0.000000      1.000000
  0.062340  0.155965  0.000000      1.000000
  0.103899  0.155964  0.000000      1.000000
 -0.103899 -0.155964 -0.000000      1.000000
 -0.083120 -0.167962 -0.000000      1.000000
  0.083120  0.167962  0.000000      1.000000
  0.062340  0.131970  0.000000      1.000000
 -0.062340 -0.131970 -0.000000      1.000000
 -0.103899 -0.131970  0.000000      1.000000
  0.103899  0.131970 -0.000000      1.000000
  0.083120  0.143967  0.000000      1.000000
 -0.083120 -0.143967 -0.000000      1.000000
 
 files read and symmetry switched off, memory is now:
 total amount of memory used by VASP MPI-rank0  1085802. kBytes
=======================================================================

   base      :      30000. kBytes
   nonl-proj :     421673. kBytes
   fftplans  :       2618. kBytes
   grid      :       7225. kBytes
   one-center:         93. kBytes
   HF        :        388. kBytes
   nonlr-proj:       2229. kBytes
   wavefun   :     504889. kBytes
   fock_wrk  :     116687. kBytes
 
 Basis sets for responsefunctions:
 =================================
 k-point   1 :   0.0000 0.0000 0.0000  plane waves:    3687
 k-point   2 :   0.0833 0.0000 0.0000  plane waves:    3667
 k-point   3 :   0.1667 0.0000 0.0000  plane waves:    3670
 k-point   4 :   0.2500 0.0000 0.0000  plane waves:    3658
 k-point   5 :   0.3333 0.0000 0.0000  plane waves:    3642
 k-point   6 :   0.4167 0.0000 0.0000  plane waves:    3644
 k-point   7 :   0.5000 0.0000 0.0000  plane waves:    3652
 k-point   8 :   0.0833 0.0833 0.0000  plane waves:    3667
 k-point   9 :   0.1667 0.0833 0.0000  plane waves:    3663
 k-point  10 :   0.2500 0.0833 0.0000  plane waves:    3651
 k-point  11 :   0.3333 0.0833 0.0000  plane waves:    3635
 k-point  12 :   0.4167 0.0833 0.0000  plane waves:    3658
 k-point  13 :   0.1667 0.1667 0.0000  plane waves:    3653
 k-point  14 :   0.2500 0.1667 0.0000  plane waves:    3634
 k-point  15 :   0.3333 0.1667 0.0000  plane waves:    3639
 k-point  16 :   0.4167 0.1667 0.0000  plane waves:    3640
 k-point  17 :   0.2500 0.2500 0.0000  plane waves:    3636
 k-point  18 :   0.3333 0.2500 0.0000  plane waves:    3636
 k-point  19 :   0.3333 0.3333 0.0000  plane waves:    3600
 k-point  20 :  -0.0833-0.0000-0.0000  plane waves:    3667
 k-point  21 :  -0.0000 0.0833-0.0000  plane waves:    3667
 k-point  22 :   0.0000-0.0833 0.0000  plane waves:    3667
 k-point  23 :  -0.0833 0.0833 0.0000  plane waves:    3667
 k-point  24 :   0.0833-0.0833-0.0000  plane waves:    3667
 k-point  25 :  -0.1667-0.0000-0.0000  plane waves:    3670
 k-point  26 :  -0.0000 0.1667-0.0000  plane waves:    3670
 k-point  27 :   0.0000-0.1667 0.0000  plane waves:    3670
 k-point  28 :  -0.1667 0.1667 0.0000  plane waves:    3670
 k-point  29 :   0.1667-0.1667-0.0000  plane waves:    3670
 k-point  30 :  -0.2500-0.0000-0.0000  plane waves:    3658
 k-point  31 :  -0.0000 0.2500-0.0000  plane waves:    3658
 k-point  32 :   0.0000-0.2500 0.0000  plane waves:    3658
 k-point  33 :  -0.2500 0.2500 0.0000  plane waves:    3658
 k-point  34 :   0.2500-0.2500-0.0000  plane waves:    3658
 k-point  35 :  -0.3333-0.0000-0.0000  plane waves:    3642
 k-point  36 :  -0.0000 0.3333-0.0000  plane waves:    3642
 k-point  37 :   0.0000-0.3333 0.0000  plane waves:    3642
 k-point  38 :  -0.3333 0.3333 0.0000  plane waves:    3642
 k-point  39 :   0.3333-0.3333-0.0000  plane waves:    3642
 k-point  40 :  -0.4167-0.0000-0.0000  plane waves:    3644
 k-point  41 :  -0.0000 0.4167-0.0000  plane waves:    3644
 k-point  42 :   0.0000-0.4167 0.0000  plane waves:    3644
 k-point  43 :  -0.4167 0.4167 0.0000  plane waves:    3644
 k-point  44 :   0.4167-0.4167-0.0000  plane waves:    3644
 k-point  45 :   0.0000-0.5000 0.0000  plane waves:    3652
 k-point  46 :  -0.5000 0.5000 0.0000  plane waves:    3652
 k-point  47 :  -0.0833-0.0833-0.0000  plane waves:    3667
 k-point  48 :  -0.0833 0.1667-0.0000  plane waves:    3667
 k-point  49 :   0.0833-0.1667 0.0000  plane waves:    3667
 k-point  50 :  -0.1667 0.0833 0.0000  plane waves:    3667
 k-point  51 :   0.1667-0.0833-0.0000  plane waves:    3667
 k-point  52 :  -0.1667-0.0833-0.0000  plane waves:    3663
 k-point  53 :  -0.0833 0.2500-0.0000  plane waves:    3663
 k-point  54 :   0.0833-0.2500 0.0000  plane waves:    3663
 k-point  55 :  -0.2500 0.1667 0.0000  plane waves:    3663
 k-point  56 :   0.2500-0.1667-0.0000  plane waves:    3663
 k-point  57 :  -0.1667 0.2500 0.0000  plane waves:    3663
 k-point  58 :   0.1667-0.2500-0.0000  plane waves:    3663
 k-point  59 :   0.0833 0.1667-0.0000  plane waves:    3663
 k-point  60 :  -0.0833-0.1667 0.0000  plane waves:    3663
 k-point  61 :   0.2500-0.0833 0.0000  plane waves:    3663
 k-point  62 :  -0.2500 0.0833-0.0000  plane waves:    3663
 k-point  63 :  -0.2500-0.0833-0.0000  plane waves:    3651
 k-point  64 :  -0.0833 0.3333-0.0000  plane waves:    3651
 k-point  65 :   0.0833-0.3333 0.0000  plane waves:    3651
 k-point  66 :  -0.3333 0.2500 0.0000  plane waves:    3651
 k-point  67 :   0.3333-0.2500-0.0000  plane waves:    3651
 k-point  68 :  -0.2500 0.3333 0.0000  plane waves:    3651
 k-point  69 :   0.2500-0.3333-0.0000  plane waves:    3651
 k-point  70 :   0.0833 0.2500-0.0000  plane waves:    3651
 k-point  71 :  -0.0833-0.2500 0.0000  plane waves:    3651
 k-point  72 :   0.3333-0.0833 0.0000  plane waves:    3651
 k-point  73 :  -0.3333 0.0833-0.0000  plane waves:    3651
 k-point  74 :  -0.3333-0.0833-0.0000  plane waves:    3635
 k-point  75 :  -0.0833 0.4167-0.0000  plane waves:    3635
 k-point  76 :   0.0833-0.4167 0.0000  plane waves:    3635
 k-point  77 :  -0.4167 0.3333 0.0000  plane waves:    3635
 k-point  78 :   0.4167-0.3333-0.0000  plane waves:    3635
 k-point  79 :  -0.3333 0.4167 0.0000  plane waves:    3635
 k-point  80 :   0.3333-0.4167-0.0000  plane waves:    3635
 k-point  81 :   0.0833 0.3333-0.0000  plane waves:    3635
 k-point  82 :  -0.0833-0.3333 0.0000  plane waves:    3635
 k-point  83 :   0.4167-0.0833 0.0000  plane waves:    3635
 k-point  84 :  -0.4167 0.0833-0.0000  plane waves:    3635
 k-point  85 :  -0.4167-0.0833-0.0000  plane waves:    3658
 k-point  86 :  -0.0833 0.5000-0.0000  plane waves:    3658
 k-point  87 :   0.0833-0.5000 0.0000  plane waves:    3658
 k-point  88 :  -0.5000 0.4167 0.0000  plane waves:    3658
 k-point  89 :   0.5000-0.4167-0.0000  plane waves:    3658
 k-point  90 :  -0.4167 0.5000 0.0000  plane waves:    3658
 k-point  91 :   0.4167-0.5000-0.0000  plane waves:    3658
 k-point  92 :   0.0833 0.4167-0.0000  plane waves:    3658
 k-point  93 :  -0.0833-0.4167 0.0000  plane waves:    3658
 k-point  94 :   0.5000-0.0833 0.0000  plane waves:    3658
 k-point  95 :  -0.5000 0.0833-0.0000  plane waves:    3658
 k-point  96 :  -0.1667-0.1667-0.0000  plane waves:    3653
 k-point  97 :  -0.1667 0.3333-0.0000  plane waves:    3653
 k-point  98 :   0.1667-0.3333 0.0000  plane waves:    3653
 k-point  99 :  -0.3333 0.1667 0.0000  plane waves:    3653
 k-point 100 :   0.3333-0.1667-0.0000  plane waves:    3653
 k-point 101 :  -0.2500-0.1667-0.0000  plane waves:    3634
 k-point 102 :  -0.1667 0.4167-0.0000  plane waves:    3634
 k-point 103 :   0.1667-0.4167 0.0000  plane waves:    3634
 k-point 104 :  -0.4167 0.2500 0.0000  plane waves:    3634
 k-point 105 :   0.4167-0.2500-0.0000  plane waves:    3634
 k-point 106 :  -0.2500 0.4167 0.0000  plane waves:    3634
 k-point 107 :   0.2500-0.4167-0.0000  plane waves:    3634
 k-point 108 :   0.1667 0.2500-0.0000  plane waves:    3634
 k-point 109 :  -0.1667-0.2500 0.0000  plane waves:    3634
 k-point 110 :   0.4167-0.1667 0.0000  plane waves:    3634
 k-point 111 :  -0.4167 0.1667-0.0000  plane waves:    3634
 k-point 112 :  -0.3333-0.1667-0.0000  plane waves:    3639
 k-point 113 :  -0.1667 0.5000-0.0000  plane waves:    3639
 k-point 114 :   0.1667-0.5000 0.0000  plane waves:    3639
 k-point 115 :  -0.5000 0.3333 0.0000  plane waves:    3639
 k-point 116 :   0.5000-0.3333-0.0000  plane waves:    3639
 k-point 117 :  -0.3333 0.5000 0.0000  plane waves:    3639
 k-point 118 :   0.3333-0.5000-0.0000  plane waves:    3639
 k-point 119 :   0.1667 0.3333-0.0000  plane waves:    3639
 k-point 120 :  -0.1667-0.3333 0.0000  plane waves:    3639
 k-point 121 :   0.5000-0.1667 0.0000  plane waves:    3639
 k-point 122 :  -0.5000 0.1667-0.0000  plane waves:    3639
 k-point 123 :  -0.4167-0.1667-0.0000  plane waves:    3640
 k-point 124 :  -0.1667 0.5833-0.0000  plane waves:    3640
 k-point 125 :   0.1667-0.5833 0.0000  plane waves:    3640
 k-point 126 :  -0.5833 0.4167 0.0000  plane waves:    3640
 k-point 127 :   0.5833-0.4167-0.0000  plane waves:    3640
 k-point 128 :  -0.2500-0.2500-0.0000  plane waves:    3636
 k-point 129 :  -0.2500 0.5000-0.0000  plane waves:    3636
 k-point 130 :   0.2500-0.5000 0.0000  plane waves:    3636
 k-point 131 :  -0.5000 0.2500 0.0000  plane waves:    3636
 k-point 132 :   0.5000-0.2500-0.0000  plane waves:    3636
 k-point 133 :  -0.3333-0.2500-0.0000  plane waves:    3636
 k-point 134 :  -0.2500 0.5833-0.0000  plane waves:    3636
 k-point 135 :   0.2500-0.5833 0.0000  plane waves:    3636
 k-point 136 :  -0.5833 0.3333 0.0000  plane waves:    3636
 k-point 137 :   0.5833-0.3333-0.0000  plane waves:    3636
 k-point 138 :  -0.3333 0.5833 0.0000  plane waves:    3636
 k-point 139 :   0.3333-0.5833-0.0000  plane waves:    3636
 k-point 140 :   0.2500 0.3333-0.0000  plane waves:    3636
 k-point 141 :  -0.2500-0.3333 0.0000  plane waves:    3636
 k-point 142 :   0.5833-0.2500 0.0000  plane waves:    3636
 k-point 143 :  -0.5833 0.2500-0.0000  plane waves:    3636
 k-point 144 :  -0.3333-0.3333-0.0000  plane waves:    3600

 maximum and minimum number of plane-waves per node :      3687     3600

 maximum number of plane-waves:      3687
 maximum index in each direction: 
[...]
     47       8.9610       9.1494      -4.7649      -4.9918      -2.1326       0.8304       0.0000      -0.2874
     48       9.0907       9.3142      -5.2517      -5.5246      -2.3688       0.8191       0.0000      -0.2800

 k-point  17 :       0.2500    0.2500    0.0000
  band No.  KS-energies  QP-energies   sigma(KS)   V_xc(KS)     V^pw_x(r,r')   Z            occupation Imag(sigma)

      1     -49.2931     -49.4394     -20.6430     -20.3642     -33.9211       0.5247       2.0000       1.3300
      2     -49.2907     -49.4394     -20.6447     -20.3634     -33.9210       0.5289       2.0000       1.3295
      3     -27.4000     -27.5785     -19.6001     -19.2905     -27.5406       0.5763       2.0000       0.7912
      4     -27.3970     -27.5810     -19.6111     -19.2920     -27.5406       0.5766       2.0000       0.7851
      5     -27.3603     -27.5497     -19.6702     -19.3412     -27.5545       0.5756       2.0000       0.7255
      6     -27.3517     -27.5468     -19.6937     -19.3540     -27.5503       0.5746       2.0000       0.6947
      7     -27.3460     -27.5474     -19.7112     -19.3616     -27.5790       0.5763       2.0000       0.7081
      8     -27.3370     -27.5377     -19.7195     -19.3737     -27.5965       0.5802       2.0000       0.7038
      9     -15.5097     -15.7954     -14.6241     -14.1662     -22.2267       0.6240       2.0000       1.2891
     10     -15.5049     -15.7935     -14.6266     -14.1651     -22.2267       0.6253       2.0000       1.2879
     11     -10.4524     -10.7151     -12.8253     -12.4259     -18.8732       0.6579       2.0000       1.0054
     12      -9.2518      -9.5459     -13.0850     -12.6463     -18.5892       0.6705       2.0000       0.8738
     13      -5.0077      -5.6065     -12.3576     -11.5013     -15.5858       0.6993       2.0000       0.3629
     14      -4.6567      -5.3399     -12.6684     -11.6900     -15.7115       0.6982       2.0000       0.2816
     15      -4.5906      -4.8767     -11.8361     -11.4306     -14.9714       0.7054       2.0000       0.4117
     16      -4.1394      -4.7570     -12.9807     -12.0966     -15.9486       0.6987       2.0000       0.2591
     17      -4.0761      -4.7082     -12.9682     -12.0695     -15.8723       0.7034       2.0000       0.2478
     18      -3.9973      -4.6628     -13.1553     -12.2072     -16.0198       0.7020       2.0000       0.2236
     19      -3.9729      -4.5290     -13.1967     -12.3993     -16.1151       0.6974       2.0000       0.2537
     20      -3.1740      -3.3936     -12.8947     -12.5872     -15.5216       0.7144       2.0000       0.2895
     21      -3.0379      -3.4090     -12.8764     -12.3595     -15.4799       0.7180       2.0000       0.2489
     22      -1.1140      -1.1021     -12.5315     -12.5483     -13.7963       0.7084       2.0000       0.1393
     23      -0.6265      -0.6263     -12.6202     -12.6205     -13.5244       0.7166       2.0000       0.1052
     24      -0.2379      -0.1421     -13.1115     -13.2454     -13.9078       0.7150       2.0000       0.0904
     25       1.1760       1.9610     -12.1190     -13.2237      -8.5401       0.7106       0.0000      -0.1647
     26       1.2469       2.0943     -12.5243     -13.7260      -8.9376       0.7051       0.0000      -0.1726
     27       1.9147       2.8380     -12.9846     -14.3287      -8.5316       0.6869       0.0000      -0.2585
     28       1.9382       2.8053     -12.6771     -13.9355      -8.1195       0.6890       0.0000      -0.2635
     29       3.1366       3.9885     -12.6290     -13.8424      -8.2211       0.7021       0.0000      -0.2877
     30       3.3734       4.2278     -11.9563     -13.1538      -7.4441       0.7134       0.0000      -0.3261
     31       3.3998       4.2592     -12.0019     -13.2001      -7.7364       0.7172       0.0000      -0.2863
     32       3.6002       4.5413     -12.7962     -14.1312      -8.2167       0.7049       0.0000      -0.3280
     33       4.4726       5.2961     -12.0754     -13.2270      -7.4608       0.7151       0.0000      -0.3928
     34       4.5210       5.2999     -11.8163     -12.8908      -7.2051       0.7249       0.0000      -0.4026
     35       6.1372       6.6792      -7.7953      -8.4976      -4.0317       0.7716       0.0000      -0.2921
     36       6.1762       6.4460      -5.0940      -5.4258      -2.2746       0.8133       0.0000      -0.2052
     37       6.4732       7.1004      -9.2460     -10.0686      -4.9925       0.7624       0.0000      -0.3740
     38       6.6141       7.0181      -6.0835      -6.5889      -2.9856       0.7994       0.0000      -0.2592
     39       7.3258       7.7166      -6.6990      -7.1915      -3.3739       0.7936       0.0000      -0.2530
     40       7.4256       7.5227      -4.8699      -4.9853      -2.4941       0.8418       0.0000      -0.2051
     41       7.6595       8.3130      -8.7709      -9.6201      -4.5813       0.7695       0.0000      -0.4356
     42       7.7003       8.1872      -6.7680      -7.3907      -3.2280       0.7818       0.0000      -0.2955
     43       8.0873       8.5035      -6.5477      -7.0702      -3.1549       0.7966       0.0000      -0.3433
     44       8.4051       8.9036      -7.8108      -8.4502      -3.9465       0.7797       0.0000      -0.3758
     45       8.5983       9.2281      -8.5514      -9.3694      -4.2590       0.7700       0.0000      -0.4988
     46       8.7266       9.1471      -5.8780      -6.4030      -2.7295       0.8011       0.0000      -0.3081
     47       8.9438       9.2158      -5.1723      -5.5039      -2.3233       0.8202       0.0000      -0.2831
     48       9.1731       9.6671      -7.2801      -7.9079      -3.3186       0.7869       0.0000      -0.4697

 k-point  18 :       0.3333    0.2500    0.0000
  band No.  KS-energies  QP-energies   sigma(KS)   V_xc(KS)     V^pw_x(r,r')   Z            occupation Imag(sigma)

      1     -49.2926     -49.4394     -20.6434     -20.3648     -33.9209       0.5272       2.0000       1.3303
      2     -49.2902     -49.4394     -20.6450     -20.3639     -33.9209       0.5310       2.0000       1.3298
      3     -27.4010     -27.5827     -19.6055     -19.2901     -27.5405       0.5761       2.0000       0.7914
      4     -27.3984     -27.5803     -19.6059     -19.2905     -27.5412       0.5767       2.0000       0.7906
      5     -27.3685     -27.5637     -19.6707     -19.3315     -27.5458       0.5753       2.0000       0.7254
      6     -27.3624     -27.5572     -19.6782     -19.3388     -27.5535       0.5740       2.0000       0.7096
      7     -27.3438     -27.5437     -19.7113     -19.3651     -27.5935       0.5775       2.0000       0.7132
      8     -27.3380     -27.5388     -19.7187     -19.3721     -27.5966       0.5791       2.0000       0.7061
      9     -15.4880     -15.7719     -14.6415     -14.1877     -22.2364       0.6256       2.0000       1.2827
     10     -15.4832     -15.7697     -14.6438     -14.1865     -22.2364       0.6265       2.0000       1.2815
     11     -10.1359     -10.4047     -12.9126     -12.5062     -18.8201       0.6615       2.0000       0.9668
     12      -9.5275      -9.8116     -13.0372     -12.6115     -18.6682       0.6673       2.0000       0.9002
     13      -5.0138      -5.5882     -12.2631     -11.4436     -15.4988       0.7009       2.0000       0.3735
     14      -4.6934      -5.1032     -12.1326     -11.5480     -15.2879       0.7010       2.0000       0.3745
     15      -4.6612      -5.2843     -12.4364     -11.5473     -15.4814       0.7008       2.0000       0.3037
     16      -4.3230      -4.9465     -12.7872     -11.8988     -15.7794       0.7019       2.0000       0.2782
     17      -4.1758      -4.8506     -12.9679     -12.0075     -15.8759       0.7026       2.0000       0.2413
     18      -3.9670      -4.6004     -13.2077     -12.3028     -16.1302       0.7000       2.0000       0.2354
     19      -3.9245      -4.5075     -13.2894     -12.4558     -16.1914       0.6994       2.0000       0.2405
     20      -3.1700      -3.4222     -12.8974     -12.5450     -15.5549       0.7155       2.0000       0.2849
     21      -3.1428      -3.4793     -12.7653     -12.2965     -15.4129       0.7179       2.0000       0.2670
     22      -1.0954      -1.1064     -12.4820     -12.4666     -13.7837       0.7096       2.0000       0.1389
     23      -0.4360      -0.3924     -12.6752     -12.7361     -13.4220       0.7157       2.0000       0.0952
     24      -0.2665      -0.1827     -12.9358     -13.0528     -13.6572       0.7160       2.0000       0.0888
     25       1.2003       1.9925     -12.2154     -13.3299      -8.7264       0.7108       0.0000      -0.1588
     26       1.4148       2.2708     -12.5697     -13.7910      -8.8174       0.7009       0.0000      -0.1880
     27       1.6743       2.5449     -12.6153     -13.8704      -8.4638       0.6937       0.0000      -0.2240
     28       1.7811       2.6570     -12.6625     -13.9280      -8.3653       0.6922       0.0000      -0.2398
     29       3.2626       4.1931     -12.8046     -14.1317      -8.3351       0.7012       0.0000      -0.2927
     30       3.4939       4.4794     -13.0462     -14.4522      -8.4894       0.7009       0.0000      -0.3170
     31       3.6256       4.5160     -12.4251     -13.6805      -7.6580       0.7092       0.0000      -0.3836
     32       3.7983       4.6414     -12.2607     -13.4444      -7.5647       0.7123       0.0000      -0.3833
     33       4.2487       5.0708     -12.2588     -13.4029      -7.5647       0.7185       0.0000      -0.4047
     34       4.5211       5.3166     -12.0971     -13.2040      -7.4047       0.7186       0.0000      -0.4173
     35       6.0480       6.6663      -8.7470      -9.5603      -4.6386       0.7602       0.0000      -0.3129
     36       6.4948       7.0673      -8.3514      -9.0982      -4.3495       0.7666       0.0000      -0.3171
     37       6.7240       7.1801      -6.8354      -7.4127      -3.4219       0.7900       0.0000      -0.2633
     38       7.0853       7.5507      -6.7721      -7.3632      -3.3470       0.7874       0.0000      -0.2864
     39       7.2768       7.8184      -7.6825      -8.3748      -4.0440       0.7823       0.0000      -0.3198
     40       7.4999       7.9395      -6.4056      -6.9610      -3.0480       0.7915       0.0000      -0.2925
     41       7.6521       8.0983      -6.5168      -7.0820      -3.1529       0.7896       0.0000      -0.2909
     42       8.0983       8.1432      -3.6221      -3.6751      -1.5026       0.8483       0.0000      -0.1751
     43       8.1629       8.4165      -4.7053      -5.0132      -2.0508       0.8236       0.0000      -0.2352
     44       8.3959       8.9568      -8.6469      -9.3742      -4.3200       0.7712       0.0000      -0.4596
     45       8.6370       9.2229      -8.1424      -8.9037      -3.9876       0.7696       0.0000      -0.4526
     46       8.6684       9.1235      -6.7892      -7.3639      -3.2785       0.7919       0.0000      -0.3751
     47       8.9361       9.1444      -4.8302      -5.0818      -2.1193       0.8278       0.0000      -0.2751
     48       9.2838       9.4021      -4.2307      -4.3715      -1.7736       0.8404       0.0000      -0.2401

 k-point  19 :       0.3333    0.3333    0.0000
  band No.  KS-energies  QP-energies   sigma(KS)   V_xc(KS)     V^pw_x(r,r')   Z            occupation Imag(sigma)

      1     -49.2924     -49.4395     -20.6435     -20.3651     -33.9209       0.5285       2.0000       1.3304
      2     -49.2900     -49.4394     -20.6452     -20.3641     -33.9208       0.5313       2.0000       1.3298
      3     -27.3929     -27.5706     -19.6100     -19.3026     -27.5374       0.5781       2.0000       0.7905
      4     -27.3908     -27.5695     -19.6107     -19.3016     -27.5377       0.5786       2.0000       0.7907
      5     -27.3812     -27.5826     -19.6640     -19.3132     -27.5477       0.5739       2.0000       0.7318
      6     -27.3737     -27.5716     -19.6684     -19.3228     -27.5579       0.5724       2.0000       0.7141
      7     -27.3415     -27.5412     -19.7153     -19.3697     -27.5966       0.5778       2.0000       0.7098
      8     -27.3395     -27.5402     -19.7160     -19.3688     -27.5969       0.5781       2.0000       0.7100
      9     -15.4800     -15.7634     -14.6478     -14.1956     -22.2399       0.6267       2.0000       1.2803
     10     -15.4752     -15.7609     -14.6503     -14.1944     -22.2400       0.6267       2.0000       1.2791
     11      -9.8222     -10.0977     -12.9842     -12.5695     -18.7507       0.6645       2.0000       0.9312
     12      -9.8222     -10.0977     -12.9842     -12.5695     -18.7507       0.6645       2.0000       0.9312
     13      -4.7799      -5.0316     -11.6920     -11.3354     -14.9272       0.7060       2.0000       0.4382
     14      -4.7199      -5.3502     -12.5212     -11.6206     -15.5960       0.6998       2.0000       0.3096
     15      -4.7199      -5.3502     -12.5212     -11.6206     -15.5960       0.6998       2.0000       0.3096
     16      -4.4482      -5.1481     -12.8381     -11.8358     -15.8514       0.6983       2.0000       0.2658
     17      -4.4482      -5.1481     -12.8381     -11.8358     -15.8514       0.6983       2.0000       0.2658
     18      -3.9193      -4.5598     -13.2764     -12.3632     -16.1813       0.7014       2.0000       0.2285
     19      -3.8983      -4.5005     -13.3377     -12.4781     -16.2287       0.7004       2.0000       0.2324
     20      -3.1614      -3.4521     -12.8147     -12.4091     -15.4793       0.7164       2.0000       0.2785
     21      -3.1614      -3.4521     -12.8147     -12.4091     -15.4793       0.7164       2.0000       0.2785
     22      -1.0521      -1.0670     -12.5162     -12.4951     -13.8489       0.7091       2.0000       0.1378
     23      -0.3196      -0.2517     -12.7132     -12.8080     -13.3513       0.7168       2.0000       0.0881
     24      -0.3196      -0.2517     -12.7132     -12.8080     -13.3513       0.7168       2.0000       0.0881
     25       1.1638       1.9861     -12.3882     -13.5396      -9.0326       0.7143       0.0000      -0.1500
     26       1.5608       2.4171     -12.5456     -13.7747      -8.5494       0.6967       0.0000      -0.2100
     27       1.5608       2.4171     -12.5456     -13.7747      -8.5494       0.6967       0.0000      -0.2100
     28       1.5608       2.4171     -12.5456     -13.7747      -8.5494       0.6967       0.0000      -0.2100
     29       3.4104       4.3992     -13.0688     -14.4818      -8.5796       0.6998       0.0000      -0.2957
     30       3.4104       4.3992     -13.0688     -14.4818      -8.5796       0.6998       0.0000      -0.2957
     31       3.8549       4.7873     -12.7357     -14.0624      -7.5771       0.7028       0.0000      -0.4646
     32       3.9896       4.8311     -12.2906     -13.4676      -7.4481       0.7150       0.0000      -0.4256
     33       4.3766       5.1794     -12.3837     -13.4986      -7.6431       0.7200       0.0000      -0.4286
     34       4.3766       5.1794     -12.3837     -13.4986      -7.6431       0.7200       0.0000      -0.4286
     35       6.3469       6.9675      -8.7651      -9.5818      -4.5907       0.7600       0.0000      -0.3196
     36       6.3498       6.9694      -8.7649      -9.5802      -4.5898       0.7599       0.0000      -0.3198
     37       6.8389       7.5222      -9.5582     -10.4504      -5.4742       0.7659       0.0000      -0.3208
     38       7.3150       7.7544      -6.3145      -6.8731      -2.9594       0.7866       0.0000      -0.2641
     39       7.3181       7.7559      -6.3119      -6.8685      -2.9572       0.7865       0.0000      -0.2642
     40       7.4893       7.8478      -5.4843      -5.9323      -2.4563       0.8002       0.0000      -0.2474
     41       7.4923       7.8491      -5.4797      -5.9255      -2.4532       0.8003       0.0000      -0.2474
     42       8.1892       8.6334      -7.0179      -7.5760      -3.3425       0.7958       0.0000      -0.3784
     43       8.2795       8.5438      -3.6827      -3.9997      -1.3854       0.8339       0.0000      -0.2002
     44       8.4559       9.0620      -8.4049      -9.1973      -4.1755       0.7649       0.0000      -0.4323
     45       8.4586       9.0637      -8.4063      -9.1974      -4.1758       0.7648       0.0000      -0.4325
     46       8.7156       8.9181      -5.5776      -5.8235      -2.5068       0.8233       0.0000      -0.3391
     47       9.1001       8.7854      -1.8542      -1.5031      -0.5873       0.8964       0.0000      -0.1097
     48       9.1001       8.7854      -1.8542      -1.5031      -0.5873       0.8964       0.0000      -0.1097


--------------------------------------------------------------------------------------------------------


  QP_SHIFT:  cpu time      1.2363: real time      2.7314
    GWLOOP:  cpu time  46469.6255: real time  48828.8516
  LATTYP: Found a hexagonal cell.
 ALAT       =     4.0102879089
 C/A-ratio  =     5.5364034416
  
  Lattice vectors:
  
 A1 = (   4.0102879089,   0.0000010362,   0.0000002928)
 A2 = (  -2.0051430558,   3.4730116690,  -0.0000003183)
 A3 = (   0.0000016072,  -0.0000011027,  22.2025717809)


Analysis of symmetry for initial positions (statically):
=====================================================================
 Subroutine PRICEL returns:
 Original cell was already a primitive cell.
 

 Routine SETGRP: Setting up the symmetry group for a 
 hexagonal supercell.


 Subroutine GETGRP returns: Found 12 space group operations
 (whereof 12 operations were pure point group operations)
 out of a pool of 24 trial point group operations.


The static configuration has the point symmetry D_3d.


Analysis of symmetry for dynamics (positions and initial velocities):
=====================================================================
 Subroutine PRICEL returns:
 Original cell was already a primitive cell.
 

 Routine SETGRP: Setting up the symmetry group for a 
 hexagonal supercell.


 Subroutine GETGRP returns: Found 12 space group operations
 (whereof 12 operations were pure point group operations)
 out of a pool of 24 trial point group operations.


The dynamic configuration has the point symmetry D_3d.


 Subroutine INISYM returns: Found 12 space group operations
 (whereof 12 operations are pure point group operations),
 and found     1 'primitive' translations

 writing wavefunctions
    --------------------------------------------
   GWTOTAL:  cpu time  46474.3924: real time  48837.9468
    4ORBIT:  cpu time      0.0000: real time      0.0000

 total amount of memory used by VASP MPI-rank0   282058. kBytes
=======================================================================

   base      :      30000. kBytes
   nonl-proj :      56201. kBytes
   fftplans  :       2618. kBytes
   grid      :       7225. kBytes
   one-center:         93. kBytes
   HF        :        388. kBytes
   nonlr-proj:       2229. kBytes
   wavefun   :      66617. kBytes
   fock_wrk  :     116687. kBytes
   2eintegral:          0. kBytes
   response  :          0. kBytes
 
  
  
 General timing and accounting informations for this job:
 ========================================================
  
                  Total CPU time used (sec):    46476.902
                            User time (sec):    38672.298
                          System time (sec):     7804.604
                         Elapsed time (sec):    48840.539
  
                   Maximum memory used (kb):     2375588.
                   Average memory used (kb):          N/A
  
                          Minor page faults:    166654725
                          Major page faults:      6233037
                 Voluntary context switches:      8020603
