 vasp.6.4.2 20Jul23 (build Jan 14 2026 17:23:08) complex                         
 executed on             LinuxGNU date 2026.04.16  21:56:36
 running   16 mpi-ranks, with    1 threads/rank, on    1 nodes
 distrk:  each k-point on    8 cores,    2 groups
 distr:  one band on NCORE=   1 cores,    8 groups


--------------------------------------------------------------------------------------------------------


 INCAR:
   SYSTEM = BSE
   PREC = Normal
   ENCUT = 450
   ALGO = EVGW0
   ISMEAR = 0
   SIGMA = 0.05
   NELM = 1
   NBANDS = 256
   NOMEGA = 96
   LWAVE = .TRUE.
   LSPECTRAL = .TRUE.
   LOPTICS = .TRUE.
   KPAR = 2

 POTCAR:    PAW_PBE Hf_pv 06Sep2000               
 POTCAR:    PAW_PBE P 06Sep2000                   
 POTCAR:    PAW_PBE Cl 06Sep2000                  
 POTCAR:    PAW_PBE Hf_pv 06Sep2000               
   VRHFIN =Hf: 5p6s5d                                                                               
   LEXCH  = PE                                                                                      
   EATOM  =   860.9206 eV,   63.2759 Ry                                                             
                                                                                                    
   TITEL  = PAW_PBE Hf_pv 06Sep2000                                                                 
   LULTRA =        F    use ultrasoft PP ?                                                          
   IUNSCR =        1    unscreen: 0-lin 1-nonlin 2-no                                               
   RPACOR =    2.500    partial core radius                                                         
   POMASS =  178.490; ZVAL   =   10.000    mass and valenz                                          
   RCORE  =    2.600    outmost cutoff radius                                                       
   RWIGS  =    3.050; RWIGS  =    1.614    wigner-seitz radius (au A)                               
   ENMAX  =  220.334; ENMIN  =  165.250 eV                                                          
   RCLOC  =    2.212    cutoff for local pot                                                        
   LCOR   =        T    correct aug charges                                                         
   LPAW   =        T    paw PP                                                                      
   EAUG   =  380.878                                                                                
   DEXC   =    0.000                                                                                
   RMAX   =    2.665    core radius for proj-oper                                                   
   RAUG   =    1.300    factor for augmentation sphere                                              
   RDEP   =    2.681    radius for radial grids                                                     
   RDEPT  =    2.139    core radius for aug-charge                                                  
                                                                                                    
   Atomic configuration                                                                             
   15 entries                                                                                       
     n  l   j            E        occ.                                                              
     1  0  0.50    -65259.4397   2.0000                                                             
     2  0  0.50    -11157.9884   2.0000                                                             
     2  1  1.50     -9795.2114   6.0000                                                             
     3  0  0.50     -2541.4060   2.0000                                                             
     3  1  1.50     -2134.4772   6.0000                                                             
     3  2  2.50     -1653.5420  10.0000                                                             
     4  0  0.50      -510.9577   2.0000                                                             
     4  1  1.50      -377.5024   6.0000                                                             
     4  2  2.50      -205.2086  10.0000                                                             
     4  3  3.50       -15.4906  14.0000                                                             
     5  0  0.50       -65.6020   2.0000                                                             
     5  1  1.50       -34.2798   6.0000                                                             
     5  2  2.50        -1.9877   3.0000                                                             
     6  0  0.50        -4.7357   1.0000                                                             
     5  3  2.50        -1.3606   0.0000                                                             
   Description                                                                                      
     l       E           TYP  RCUT    TYP  RCUT                                                     
     1    -34.2797769     23  2.500                                                                 
     1    -35.6403595     23  2.500                                                                 
     2     -1.9876655     23  2.500                                                                 
     2      0.0744675     23  2.500                                                                 
     0     -4.7356889     23  2.600                                                                 
     0      3.2364748     23  2.600                                                                 
  local pseudopotential read in
  partial core-charges read in
  partial kinetic energy density read in
  atomic valenz-charges read in
  non local Contribution for L=            1  read in
    real space projection operators read in
  non local Contribution for L=            1  read in
    real space projection operators read in
  non local Contribution for L=            2  read in
    real space projection operators read in
  non local Contribution for L=            2  read in
    real space projection operators read in
  non local Contribution for L=            0  read in
    real space projection operators read in
  non local Contribution for L=            0  read in
    real space projection operators read in
    PAW grid and wavefunctions read in
 
   number of l-projection  operators is LMAX  =            6
   number of lm-projection operators is LMMAX =           18
 
 POTCAR:    PAW_PBE P 06Sep2000                   
   VRHFIN =P : s2p3                                                                                 
   LEXCH  = PE                                                                                      
   EATOM  =   176.0430 eV,   12.9388 Ry                                                             
                                                                                                    
   TITEL  = PAW_PBE P 06Sep2000                                                                     
   LULTRA =        F    use ultrasoft PP ?                                                          
   IUNSCR =        1    unscreen: 0-lin 1-nonlin 2-no                                               
   RPACOR =    1.500    partial core radius                                                         
   POMASS =   30.974; ZVAL   =    5.000    mass and valenz                                          
   RCORE  =    1.900    outmost cutoff radius                                                       
   RWIGS  =    2.330; RWIGS  =    1.233    wigner-seitz radius (au A)                               
   ENMAX  =  255.040; ENMIN  =  191.280 eV                                                          
   ICORE  =        2    local potential                                                             
   LCOR   =        T    correct aug charges                                                         
   LPAW   =        T    paw PP                                                                      
   EAUG   =  342.924                                                                                
   DEXC   =    0.000                                                                                
   RMAX   =    1.935    core radius for proj-oper                                                   
   RAUG   =    1.300    factor for augmentation sphere                                              
   RDEP   =    1.931    radius for radial grids                                                     
   RDEPT  =    1.794    core radius for aug-charge                                                  
                                                                                                    
   Atomic configuration                                                                             
    6 entries                                                                                       
     n  l   j            E        occ.                                                              
     1  0  0.50     -2084.0982   2.0000                                                             
     2  0  0.50      -173.9859   2.0000                                                             
     2  1  1.50      -124.4865   6.0000                                                             
     3  0  0.50       -13.9692   2.0000                                                             
     3  1  0.50        -5.5067   3.0000                                                             
     3  2  1.50        -5.4423   0.0000                                                             
   Description                                                                                      
     l       E           TYP  RCUT    TYP  RCUT                                                     
     0    -13.9691527     23  1.900                                                                 
     0    -11.7794650     23  1.900                                                                 
     1     -5.5066937     23  1.900                                                                 
     1     -0.2556953     23  1.900                                                                 
     2     -5.4423304     23  1.900                                                                 
  local pseudopotential read in
  partial core-charges read in
  partial kinetic energy density read in
  atomic valenz-charges read in
  non local Contribution for L=            0  read in
    real space projection operators read in
  non local Contribution for L=            0  read in
    real space projection operators read in
  non local Contribution for L=            1  read in
    real space projection operators read in
  non local Contribution for L=            1  read in
    real space projection operators read in
    PAW grid and wavefunctions read in
 
   number of l-projection  operators is LMAX  =            4
   number of lm-projection operators is LMMAX =            8
 
 POTCAR:    PAW_PBE Cl 06Sep2000                  
   VRHFIN =Cl: s2p5                                                                                 
   LEXCH  = PE                                                                                      
   EATOM  =   409.7259 eV,   30.1140 Ry                                                             
                                                                                                    
   TITEL  = PAW_PBE Cl 06Sep2000                                                                    
   LULTRA =        F    use ultrasoft PP ?                                                          
   IUNSCR =        1    unscreen: 0-lin 1-nonlin 2-no                                               
   RPACOR =    1.500    partial core radius                                                         
   POMASS =   35.453; ZVAL   =    7.000    mass and valenz                                          
   RCORE  =    1.900    outmost cutoff radius                                                       
   RWIGS  =    2.100; RWIGS  =    1.111    wigner-seitz radius (au A)                               
   ENMAX  =  262.472; ENMIN  =  196.854 eV                                                          
   ICORE  =        2    local potential                                                             
   LCOR   =        T    correct aug charges                                                         
   LPAW   =        T    paw PP                                                                      
   EAUG   =  356.192                                                                                
   DEXC   =    0.000                                                                                
   RMAX   =    1.945    core radius for proj-oper                                                   
   RAUG   =    1.300    factor for augmentation sphere                                              
   RDEP   =    2.020    radius for radial grids                                                     
   RDEPT  =    1.678    core radius for aug-charge                                                  
                                                                                                    
   Atomic configuration                                                                             
    6 entries                                                                                       
     n  l   j            E        occ.                                                              
     1  0  0.50     -2751.1850   2.0000                                                             
     2  0  0.50      -252.6861   2.0000                                                             
     2  1  1.50      -191.6157   6.0000                                                             
     3  0  0.50       -20.6916   2.0000                                                             
     3  1  0.50        -8.5949   5.0000                                                             
     3  2  1.50        -8.1635   0.0000                                                             
   Description                                                                                      
     l       E           TYP  RCUT    TYP  RCUT                                                     
     0    -20.6915656     23  1.900                                                                 
     0    -22.0521482     23  1.900                                                                 
     1     -8.5948577     23  1.900                                                                 
     1     -5.3847331     23  1.900                                                                 
     2     -8.1634956     23  1.900                                                                 
  local pseudopotential read in
  partial core-charges read in
  partial kinetic energy density read in
  atomic valenz-charges read in
  non local Contribution for L=            0  read in
    real space projection operators read in
  non local Contribution for L=            0  read in
    real space projection operators read in
  non local Contribution for L=            1  read in
    real space projection operators read in
  non local Contribution for L=            1  read in
    real space projection operators read in
    PAW grid and wavefunctions read in
 
   number of l-projection  operators is LMAX  =            4
   number of lm-projection operators is LMMAX =            8
 
  PAW_PBE Hf_pv 06Sep2000               :
 energy of atom  1       EATOM= -860.9206
 kinetic energy error for atom=    0.0023 (will be added to EATOM!!)
  PAW_PBE P 06Sep2000                   :
 energy of atom  2       EATOM= -176.0430
 kinetic energy error for atom=    0.0019 (will be added to EATOM!!)
  PAW_PBE Cl 06Sep2000                  :
 energy of atom  3       EATOM= -409.7259
 kinetic energy error for atom=    0.0057 (will be added to EATOM!!)
 
 
 POSCAR: HfPCl
  positions in direct lattice
  velocities in cartesian coordinates
 -----------------------------------------------------------------------------
|                                                                             |
|           W    W    AA    RRRRR   N    N  II  N    N   GGGG   !!!           |
|           W    W   A  A   R    R  NN   N  II  NN   N  G    G  !!!           |
|           W    W  A    A  R    R  N N  N  II  N N  N  G       !!!           |
|           W WW W  AAAAAA  RRRRR   N  N N  II  N  N N  G  GGG   !            |
|           WW  WW  A    A  R   R   N   NN  II  N   NN  G    G                |
|           W    W  A    A  R    R  N    N  II  N    N   GGGG   !!!           |
|                                                                             |
|     The default for ENCUTGWSOFT is different in this version of VASP.       |
|     If you wish to obtain identical results as using pre vasp.6.3           |
|     please manually set ENCUTGWSOFT =300 in the INCAR file.                 |
|                                                                             |
 -----------------------------------------------------------------------------

 exchange correlation table for  LEXCH =        8
   RHO(1)=    0.500       N(1)  =     2000
   RHO(2)=  100.500       N(2)  =     4000
 


--------------------------------------------------------------------------------------------------------


 ion  position               nearest neighbor table
   1  0.333  0.667  0.588-   4 2.53   4 2.53   4 2.53   3 2.65   6 2.81   6 2.81   6 2.81
   2  0.667  0.333  0.412-   3 2.53   3 2.53   3 2.53   4 2.65   5 2.81   5 2.81   5 2.81
   3  0.333  0.667  0.465-   2 2.53   2 2.53   2 2.53   1 2.65   4 2.73   4 2.73   4 2.73
   4  0.667  0.333  0.535-   1 2.53   1 2.53   1 2.53   2 2.65   3 2.73   3 2.73   3 2.73
   5  1.000  0.000  0.335-   2 2.81   2 2.81   2 2.81
   6  0.000  1.000  0.665-   1 2.81   1 2.81   1 2.81
 
  LATTYP: Found a hexagonal cell.
 ALAT       =     3.9289576444
 C/A-ratio  =     5.4911991230
  
  Lattice vectors:
  
 A1 = (   3.9289576444,   0.0000032244,   0.0000009405)
 A2 = (  -1.9644760126,   3.4025784636,  -0.0000009876)
 A3 = (   0.0000050992,  -0.0000032086,  21.5746887712)


Analysis of symmetry for initial positions (statically):
=====================================================================
 Subroutine PRICEL returns:
 Original cell was already a primitive cell.
 

 Routine SETGRP: Setting up the symmetry group for a 
 hexagonal supercell.


 Subroutine GETGRP returns: Found 12 space group operations
 (whereof 12 operations were pure point group operations)
 out of a pool of 24 trial point group operations.


The static configuration has the point symmetry D_3d.


Analysis of symmetry for dynamics (positions and initial velocities):
=====================================================================
 Subroutine PRICEL returns:
 Original cell was already a primitive cell.
 

 Routine SETGRP: Setting up the symmetry group for a 
 hexagonal supercell.


 Subroutine GETGRP returns: Found 12 space group operations
 (whereof 12 operations were pure point group operations)
 out of a pool of 24 trial point group operations.


The dynamic configuration has the point symmetry D_3d.


 Subroutine INISYM returns: Found 12 space group operations
 (whereof 12 operations are pure point group operations),
 and found     1 'primitive' translations


----------------------------------------------------------------------------------------

                                     Primitive cell                                     

  volume of cell :     288.4232

  direct lattice vectors                    reciprocal lattice vectors
     3.928957644  0.000003224  0.000000941     0.254520312  0.146947103 -0.000000038
    -1.964476013  3.402578464 -0.000000988    -0.000000241  0.293894626  0.000000044
     0.000005099 -0.000003209 21.574688771    -0.000000011  0.000000007  0.046350611

  length of vectors
     3.928957644  3.928957394 21.574688771     0.293894608  0.293894626  0.046350611

  position of ions in fractional coordinates (direct lattice)
     0.333333217  0.666666866  0.587527996
     0.666666787  0.333333133  0.412470173
     0.333333204  0.666666783  0.464605349
     0.666666800  0.333333216  0.535395131
     0.999999829  0.000000033  0.335276712
     0.000000162  0.999999968  0.664724640

  ion indices of the primitive-cell ions
   primitive index   ion index
                 1           1
                 2           2
                 3           3
                 4           4
                 5           5
                 6           6

----------------------------------------------------------------------------------------

 
 
 KPOINTS: K-Spacing Value to Generate K-Mesh: 0.02

Automatic generation of k-mesh.
 Grid dimensions read from file:
 generate k-points for:   12   12    1

 Generating k-lattice:

  Cartesian coordinates                     Fractional coordinates (reciprocal lattice)
     0.021210026  0.012245592 -0.000000003     0.083333333  0.000000000 -0.000000000
    -0.000000020  0.024491219  0.000000004     0.000000000  0.083333333  0.000000000
    -0.000000011  0.000000007  0.046350611     0.000000000 -0.000000000  1.000000000

  Length of vectors
     0.024491217  0.024491219  0.046350611

  Shift w.r.t. Gamma in fractional coordinates (k-lattice)
     0.000000000  0.000000000  0.000000000

 
 Subroutine IBZKPT returns following result:
 ===========================================
 
 Found     19 irreducible k-points:
 
 Following reciprocal coordinates:
            Coordinates               Weight
  0.000000  0.000000  0.000000      1.000000
  0.083333  0.000000  0.000000      6.000000
  0.166667  0.000000  0.000000      6.000000
  0.250000  0.000000  0.000000      6.000000
  0.333333  0.000000  0.000000      6.000000
  0.416667  0.000000  0.000000      6.000000
  0.500000  0.000000  0.000000      3.000000
  0.083333  0.083333  0.000000      6.000000
  0.166667  0.083333  0.000000     12.000000
  0.250000  0.083333  0.000000     12.000000
  0.333333  0.083333  0.000000     12.000000
  0.416667  0.083333  0.000000     12.000000
  0.166667  0.166667  0.000000      6.000000
  0.250000  0.166667  0.000000     12.000000
  0.333333  0.166667  0.000000     12.000000
  0.416667  0.166667  0.000000      6.000000
  0.250000  0.250000  0.000000      6.000000
  0.333333  0.250000  0.000000     12.000000
  0.333333  0.333333  0.000000      2.000000
 
 Following cartesian coordinates:
            Coordinates               Weight
  0.000000  0.000000  0.000000      1.000000
  0.021210  0.012246 -0.000000      6.000000
  0.042420  0.024491 -0.000000      6.000000
  0.063630  0.036737 -0.000000      6.000000
  0.084840  0.048982 -0.000000      6.000000
  0.106050  0.061228 -0.000000      6.000000
  0.127260  0.073474 -0.000000      3.000000
  0.021210  0.036737  0.000000      6.000000
  0.042420  0.048982 -0.000000     12.000000
  0.063630  0.061228 -0.000000     12.000000
  0.084840  0.073474 -0.000000     12.000000
  0.106050  0.085719 -0.000000     12.000000
  0.042420  0.073474  0.000000      6.000000
  0.063630  0.085719 -0.000000     12.000000
  0.084840  0.097965 -0.000000     12.000000
  0.106050  0.110210 -0.000000      6.000000
  0.063630  0.110210  0.000000      6.000000
  0.084840  0.122456 -0.000000     12.000000
  0.084840  0.146947  0.000000      2.000000
 
 
 Subroutine IBZKPT_HF returns following result:
 ==============================================
 
 Found    144 k-points in 1st BZ
 the following    144 k-points will be used (e.g. in the exchange kernel)
 Following reciprocal coordinates:   # in IRBZ
  0.000000  0.000000  0.000000    0.00694444   1 t-inv F
  0.083333  0.000000  0.000000    0.00694444   2 t-inv F
  0.166667  0.000000  0.000000    0.00694444   3 t-inv F
  0.250000  0.000000  0.000000    0.00694444   4 t-inv F
  0.333333  0.000000  0.000000    0.00694444   5 t-inv F
  0.416667  0.000000  0.000000    0.00694444   6 t-inv F
  0.500000  0.000000  0.000000    0.00694444   7 t-inv F
  0.083333  0.083333  0.000000    0.00694444   8 t-inv F
  0.166667  0.083333  0.000000    0.00694444   9 t-inv F
  0.250000  0.083333  0.000000    0.00694444  10 t-inv F
  0.333333  0.083333  0.000000    0.00694444  11 t-inv F
  0.416667  0.083333  0.000000    0.00694444  12 t-inv F
  0.166667  0.166667  0.000000    0.00694444  13 t-inv F
  0.250000  0.166667  0.000000    0.00694444  14 t-inv F
  0.333333  0.166667  0.000000    0.00694444  15 t-inv F
  0.416667  0.166667  0.000000    0.00694444  16 t-inv F
  0.250000  0.250000  0.000000    0.00694444  17 t-inv F
  0.333333  0.250000  0.000000    0.00694444  18 t-inv F
  0.333333  0.333333  0.000000    0.00694444  19 t-inv F
 -0.083333 -0.000000 -0.000000    0.00694444   2 t-inv F
 -0.083333  0.083333  0.000000    0.00694444   2 t-inv F
  0.083333 -0.083333 -0.000000    0.00694444   2 t-inv F
  0.000000 -0.083333  0.000000    0.00694444   2 t-inv F
 -0.000000  0.083333 -0.000000    0.00694444   2 t-inv F
 -0.166667 -0.000000 -0.000000    0.00694444   3 t-inv F
 -0.166667  0.166667  0.000000    0.00694444   3 t-inv F
  0.166667 -0.166667 -0.000000    0.00694444   3 t-inv F
  0.000000 -0.166667  0.000000    0.00694444   3 t-inv F
 -0.000000  0.166667 -0.000000    0.00694444   3 t-inv F
 -0.250000 -0.000000 -0.000000    0.00694444   4 t-inv F
 -0.250000  0.250000  0.000000    0.00694444   4 t-inv F
  0.250000 -0.250000 -0.000000    0.00694444   4 t-inv F
  0.000000 -0.250000  0.000000    0.00694444   4 t-inv F
 -0.000000  0.250000 -0.000000    0.00694444   4 t-inv F
 -0.333333 -0.000000 -0.000000    0.00694444   5 t-inv F
 -0.333333  0.333333  0.000000    0.00694444   5 t-inv F
  0.333333 -0.333333 -0.000000    0.00694444   5 t-inv F
  0.000000 -0.333333  0.000000    0.00694444   5 t-inv F
 -0.000000  0.333333 -0.000000    0.00694444   5 t-inv F
 -0.416667 -0.000000 -0.000000    0.00694444   6 t-inv F
 -0.416667  0.416667  0.000000    0.00694444   6 t-inv F
  0.416667 -0.416667 -0.000000    0.00694444   6 t-inv F
  0.000000 -0.416667  0.000000    0.00694444   6 t-inv F
 -0.000000  0.416667 -0.000000    0.00694444   6 t-inv F
 -0.500000  0.500000  0.000000    0.00694444   7 t-inv F
  0.000000 -0.500000  0.000000    0.00694444   7 t-inv F
 -0.083333 -0.083333 -0.000000    0.00694444   8 t-inv F
 -0.166667  0.083333  0.000000    0.00694444   8 t-inv F
  0.166667 -0.083333 -0.000000    0.00694444   8 t-inv F
  0.083333 -0.166667  0.000000    0.00694444   8 t-inv F
 -0.083333  0.166667 -0.000000    0.00694444   8 t-inv F
 -0.166667 -0.083333 -0.000000    0.00694444   9 t-inv F
 -0.250000  0.166667  0.000000    0.00694444   9 t-inv F
  0.250000 -0.166667 -0.000000    0.00694444   9 t-inv F
  0.083333 -0.250000  0.000000    0.00694444   9 t-inv F
 -0.083333  0.250000 -0.000000    0.00694444   9 t-inv F
  0.166667 -0.250000 -0.000000    0.00694444   9 t-inv F
 -0.166667  0.250000  0.000000    0.00694444   9 t-inv F
 -0.250000  0.083333 -0.000000    0.00694444   9 t-inv F
  0.250000 -0.083333  0.000000    0.00694444   9 t-inv F
  0.083333  0.166667 -0.000000    0.00694444   9 t-inv F
 -0.083333 -0.166667  0.000000    0.00694444   9 t-inv F
 -0.250000 -0.083333 -0.000000    0.00694444  10 t-inv F
 -0.333333  0.250000  0.000000    0.00694444  10 t-inv F
  0.333333 -0.250000 -0.000000    0.00694444  10 t-inv F
  0.083333 -0.333333  0.000000    0.00694444  10 t-inv F
 -0.083333  0.333333 -0.000000    0.00694444  10 t-inv F
  0.250000 -0.333333 -0.000000    0.00694444  10 t-inv F
 -0.250000  0.333333  0.000000    0.00694444  10 t-inv F
 -0.333333  0.083333 -0.000000    0.00694444  10 t-inv F
  0.333333 -0.083333  0.000000    0.00694444  10 t-inv F
  0.083333  0.250000 -0.000000    0.00694444  10 t-inv F
 -0.083333 -0.250000  0.000000    0.00694444  10 t-inv F
 -0.333333 -0.083333 -0.000000    0.00694444  11 t-inv F
 -0.416667  0.333333  0.000000    0.00694444  11 t-inv F
  0.416667 -0.333333 -0.000000    0.00694444  11 t-inv F
  0.083333 -0.416667  0.000000    0.00694444  11 t-inv F
 -0.083333  0.416667 -0.000000    0.00694444  11 t-inv F
  0.333333 -0.416667 -0.000000    0.00694444  11 t-inv F
 -0.333333  0.416667  0.000000    0.00694444  11 t-inv F
 -0.416667  0.083333 -0.000000    0.00694444  11 t-inv F
  0.416667 -0.083333  0.000000    0.00694444  11 t-inv F
  0.083333  0.333333 -0.000000    0.00694444  11 t-inv F
 -0.083333 -0.333333  0.000000    0.00694444  11 t-inv F
 -0.416667 -0.083333 -0.000000    0.00694444  12 t-inv F
 -0.500000  0.416667  0.000000    0.00694444  12 t-inv F
  0.500000 -0.416667 -0.000000    0.00694444  12 t-inv F
  0.083333 -0.500000  0.000000    0.00694444  12 t-inv F
 -0.083333  0.500000 -0.000000    0.00694444  12 t-inv F
  0.416667 -0.500000 -0.000000    0.00694444  12 t-inv F
 -0.416667  0.500000  0.000000    0.00694444  12 t-inv F
 -0.500000  0.083333 -0.000000    0.00694444  12 t-inv F
  0.500000 -0.083333  0.000000    0.00694444  12 t-inv F
  0.083333  0.416667 -0.000000    0.00694444  12 t-inv F
 -0.083333 -0.416667  0.000000    0.00694444  12 t-inv F
 -0.166667 -0.166667 -0.000000    0.00694444  13 t-inv F
 -0.333333  0.166667  0.000000    0.00694444  13 t-inv F
  0.333333 -0.166667 -0.000000    0.00694444  13 t-inv F
  0.166667 -0.333333  0.000000    0.00694444  13 t-inv F
 -0.166667  0.333333 -0.000000    0.00694444  13 t-inv F
 -0.250000 -0.166667 -0.000000    0.00694444  14 t-inv F
 -0.416667  0.250000  0.000000    0.00694444  14 t-inv F
  0.416667 -0.250000 -0.000000    0.00694444  14 t-inv F
  0.166667 -0.416667  0.000000    0.00694444  14 t-inv F
 -0.166667  0.416667 -0.000000    0.00694444  14 t-inv F
  0.250000 -0.416667 -0.000000    0.00694444  14 t-inv F
 -0.250000  0.416667  0.000000    0.00694444  14 t-inv F
 -0.416667  0.166667 -0.000000    0.00694444  14 t-inv F
  0.416667 -0.166667  0.000000    0.00694444  14 t-inv F
  0.166667  0.250000 -0.000000    0.00694444  14 t-inv F
 -0.166667 -0.250000  0.000000    0.00694444  14 t-inv F
 -0.333333 -0.166667 -0.000000    0.00694444  15 t-inv F
 -0.500000  0.333333  0.000000    0.00694444  15 t-inv F
  0.500000 -0.333333 -0.000000    0.00694444  15 t-inv F
  0.166667 -0.500000  0.000000    0.00694444  15 t-inv F
 -0.166667  0.500000 -0.000000    0.00694444  15 t-inv F
  0.333333 -0.500000 -0.000000    0.00694444  15 t-inv F
 -0.333333  0.500000  0.000000    0.00694444  15 t-inv F
 -0.500000  0.166667 -0.000000    0.00694444  15 t-inv F
  0.500000 -0.166667  0.000000    0.00694444  15 t-inv F
  0.166667  0.333333 -0.000000    0.00694444  15 t-inv F
 -0.166667 -0.333333  0.000000    0.00694444  15 t-inv F
 -0.416667 -0.166667 -0.000000    0.00694444  16 t-inv F
 -0.583333  0.416667  0.000000    0.00694444  16 t-inv F
  0.583333 -0.416667 -0.000000    0.00694444  16 t-inv F
  0.166667 -0.583333  0.000000    0.00694444  16 t-inv F
 -0.166667  0.583333 -0.000000    0.00694444  16 t-inv F
 -0.250000 -0.250000 -0.000000    0.00694444  17 t-inv F
 -0.500000  0.250000  0.000000    0.00694444  17 t-inv F
  0.500000 -0.250000 -0.000000    0.00694444  17 t-inv F
  0.250000 -0.500000  0.000000    0.00694444  17 t-inv F
 -0.250000  0.500000 -0.000000    0.00694444  17 t-inv F
 -0.333333 -0.250000 -0.000000    0.00694444  18 t-inv F
 -0.583333  0.333333  0.000000    0.00694444  18 t-inv F
  0.583333 -0.333333 -0.000000    0.00694444  18 t-inv F
  0.250000 -0.583333  0.000000    0.00694444  18 t-inv F
 -0.250000  0.583333 -0.000000    0.00694444  18 t-inv F
  0.333333 -0.583333 -0.000000    0.00694444  18 t-inv F
 -0.333333  0.583333  0.000000    0.00694444  18 t-inv F
 -0.583333  0.250000 -0.000000    0.00694444  18 t-inv F
  0.583333 -0.250000  0.000000    0.00694444  18 t-inv F
  0.250000  0.333333 -0.000000    0.00694444  18 t-inv F
 -0.250000 -0.333333  0.000000    0.00694444  18 t-inv F
 -0.333333 -0.333333 -0.000000    0.00694444  19 t-inv F


--------------------------------------------------------------------------------------------------------




 Dimension of arrays:
   k-points           NKPTS =     19   k-points in BZ     NKDIM =    144   number of bands    NBANDS=    256
   number of dos      NEDOS =    301   number of ions     NIONS =      6
   non local maximal  LDIM  =      6   non local SUM 2l+1 LMDIM =     18
   total plane-waves  NPLWV =  44800
   max r-space proj   IRMAX =      1   max aug-charges    IRDMAX=   8806
   dimension x,y,z NGX =    20 NGY =   20 NGZ =  112
   dimension x,y,z NGXF=    40 NGYF=   40 NGZF=  224
   support grid    NGXF=    40 NGYF=   40 NGZF=  224
   ions per type =               2   2   2
   NGX,Y,Z   is equivalent  to a cutoff of   8.46,  8.46,  8.63 a.u.
   NGXF,Y,Z  is equivalent  to a cutoff of  16.93, 16.93, 17.26 a.u.

 SYSTEM =  BSE                                     
 POSCAR =  HfPCl                                   

 Startparameter for this run:
   NWRITE =      2    write-flag & timer
   PREC   = normal    normal or accurate (medium, high low for compatibility)
   ISTART =      1    job   : 0-new  1-cont  2-samecut
   ICHARG =      0    charge: 1-file 2-atom 10-const
   ISPIN  =      1    spin polarized calculation?
   LNONCOLLINEAR =      F non collinear calculations
   LSORBIT =      F    spin-orbit coupling
   INIWAV =      1    electr: 0-lowe 1-rand  2-diag
   LASPH  =      F    aspherical Exc in radial PAW
 Electronic Relaxation 1
   ENCUT  =  450.0 eV  33.07 Ry    5.75 a.u.   6.80  6.80 37.32*2*pi/ulx,y,z
   ENINI  =  450.0     initial cutoff
   ENAUG  =  380.9 eV  augmentation charge cutoff
   NELM   =      1;   NELMIN=  2; NELMDL=  0     # of ELM steps 
   EDIFF  = 0.1E-03   stopping-criterion for ELM
   LREAL  =      F    real-space projection
   NLSPLINE    = F    spline interpolate recip. space projectors
   LCOMPAT=      F    compatible to vasp.4.4
   GGA_COMPAT  = T    GGA compatible to vasp.4.4-vasp.4.6
   LMAXPAW     = -100 max onsite density
   LMAXMIX     =    2 max onsite mixed and CHGCAR
   VOSKOWN=      0    Vosko Wilk Nusair interpolation
   ROPT   =    0.00000   0.00000   0.00000
 Ionic relaxation
   EDIFFG = 0.1E-02   stopping-criterion for IOM
   NSW    =      0    number of steps for IOM
   NBLOCK =      1;   KBLOCK =      1    inner block; outer block 
   IBRION =     -1    ionic relax: 0-MD 1-quasi-New 2-CG
   NFREE  =      0    steps in history (QN), initial steepest desc. (CG)
   ISIF   =      0    stress and relaxation
   IWAVPR =     10    prediction:  0-non 1-charg 2-wave 3-comb
   ISYM   =      3    0-nonsym 1-usesym 2-fastsym
   LCORR  =      T    Harris-Foulkes like correction to forces

   POTIM  = 0.5000    time-step for ionic-motion
   TEIN   =    0.0    initial temperature
   TEBEG  =    0.0;   TEEND  =   0.0 temperature during run
   SMASS  =  -3.00    Nose mass-parameter (am)
   estimated Nose-frequenzy (Omega)   =  0.10E-29 period in steps = 0.13E+47 mass=  -0.353E-27a.u.
   SCALEE = 1.0000    scale energy and forces
   NPACO  =    256;   APACO  = 10.0  distance and # of slots for P.C.
   PSTRESS=    0.0 pullay stress

  Mass of Ions in am
   POMASS = 178.49 30.97 35.45
  Ionic Valenz
   ZVAL   =  10.00  5.00  7.00
  Atomic Wigner-Seitz radii
   RWIGS  =  -1.00 -1.00 -1.00
  virtual crystal weights 
   VCA    =   1.00  1.00  1.00
   NELECT =      44.0000    total number of electrons
   NUPDOWN=      -1.0000    fix difference up-down

 DOS related values:
   EMIN   =  10.00;   EMAX   =-10.00  energy-range for DOS
   EFERMI =   0.00;   METHOD = LEGACY      
   ISMEAR =     0;   SIGMA  =   0.05  broadening in eV -4-tet -1-fermi 0-gaus

 Electronic relaxation 2 (details)
   IALGO  =     38    algorithm
   LDIAG  =      T    sub-space diagonalisation (order eigenvalues)
   LSUBROT=      F    optimize rotation matrix (better conditioning)
   TURBO    =      0    0=normal 1=particle mesh
   IRESTART =      0    0=no restart 2=restart with 2 vectors
   NREBOOT  =      0    no. of reboots
   NMIN     =      0    reboot dimension
   EREF     =   0.00    reference energy to select bands
   IMIX   =      4    mixing-type and parameters
     AMIX     =   0.40;   BMIX     =  1.00
     AMIX_MAG =   1.60;   BMIX_MAG =  1.00
     AMIN     =   0.10
     WC   =   100.;   INIMIX=   1;  MIXPRE=   1;  MAXMIX= -45

 Intra band minimization:
   WEIMIN = 0.0000     energy-eigenvalue tresh-hold
   EBREAK =  0.98E-07  absolut break condition
   DEPER  =   0.30     relativ break condition  

   TIME   =   0.40     timestep for ELM

  volume/ion in A,a.u.               =      48.07       324.40
  Fermi-wavevector in a.u.,A,eV,Ry     =   0.874747  1.653032 10.410930  0.765182
  Thomas-Fermi vector in A             =   1.994321
 
 Write flags
   LWAVE        =      T    write WAVECAR
   LDOWNSAMPLE  =      F    k-point downsampling of WAVECAR
   LCHARG       =      T    write CHGCAR
   LVTOT        =      F    write LOCPOT, total local potential
   LVHAR        =      F    write LOCPOT, Hartree potential only
   LELF         =      F    write electronic localiz. function (ELF)
   LORBIT       =      0    0 simple, 1 ext, 2 COOP (PROOUT), +10 PAW based schemes


 Dipole corrections
   LMONO  =      F    monopole corrections only (constant potential shift)
   LDIPOL =      F    correct potential (dipole corrections)
   IDIPOL =      0    1-x, 2-y, 3-z, 4-all directions 
   EPSILON=  1.0000000 bulk dielectric constant

 Exchange correlation treatment:
   GGA     =    --    GGA type
   LEXCH   =     8    internal setting for exchange type
   LIBXC   =     F    Libxc                    
   VOSKOWN =     0    Vosko Wilk Nusair interpolation
   EXXOEP  =     0    0=HF, 1=EXX-LHF (local Hartree Fock) 2=EXX OEP
   LHFCALC =     T    Hartree Fock is set to
   LSYMGRAD=     F    symmetrize gradient (conserves proper symmetry)
   PRECFOCK=normal    Normal, Fast or Accurate (Low or Medium for compatibility)
   LRHFCALC=     F    long range Hartree Fock
   LRSCOR  =     F    long range correlation only (use DFT for short range part)
   LTHOMAS =     F    Thomas Fermi screening in HF
   LMODELHF=     F    short range full HF, long range fraction AEXX
   FOCKCORR=     2    mode to apply convergence corrections
   LFOCKACE=     T    use Adeptively-Compressed-Exchange operator
   ENCUT4O =  -1.0   cutoff for four orbital integrals eV
   LMAXFOCK=     4    L truncation for augmentation on plane wave grid
   LMAXFOCKAE=   4    L truncation for all-electron charge restoration on plane wave grid
   NMAXFOCKAE=   1    number of basis functions for all-electron charge restoration
   LFOCKAEDFT=     F  apply the AE augmentation even for DFT
   NKREDX  =     1    reduce k-point grid by
   NKREDY  =     1    reduce k-point grid by
   NKREDZ  =     1    reduce k-point grid by
   SHIFTRED=     F    shift reduced grid of Gamma
   HFKIDENT=     F    idential grid for each k-point
   ODDONLY =     F    use only odd q-grid points
   EVENONLY=     F    use only even q-grid points
   HFALPHA =   -1.0000 decay constant for conv. correction
   MCALPHA =    0.0000 extent of test-charge in conv. correction in multipole expansion
   AEXX    =    1.0000 exact exchange contribution
   HFSCREEN=    0.0000 screening length (either q_TF or 0.3 A-1)
   HFSCREENC=   0.0000 screening length for correlation (either q_TF or 0.3 A-1)
   HFRCUT  =    0.0000 spherical cutoff for potential kernel
   ALDAX   =    0.0000 LDA exchange part
   AGGAX   =    0.0000 GGA exchange part
   ALDAC   =    0.0000 LDA correlation
   AGGAC   =    0.0000 GGA correlation
   ENCUTFOCK=  -1.0 apply spherical cutoff to Coloumb kernel
   NBANDSGWLOW=     1    first orbital included in HF term
   NBLOCK_FOCK=    64    blocking factor in FOCK_ACC

 Linear response parameters
   LEPSILON=     F    determine dielectric tensor
   LRPA    =     F    only Hartree local field effects (RPA)
   LNABLA  =     F    use nabla operator in PAW spheres
   LVEL    =     F    velocity operator in full k-point grid
   CSHIFT  =0.1000    complex shift for real part using Kramers Kronig
   OMEGAMAX=  -1.0    maximum frequency
   DEG_THRESHOLD= 0.2000000E-02 threshold for treating states as degnerate
   RTIME   =   -0.100 relaxation time in fs
  (WPLASMAI=    0.000 imaginary part of plasma frequency in eV, 0.658/RTIME)
   DFIELD  = 0.0000000 0.0000000 0.0000000 field for delta impulse in time
 
  Optional k-point grid parameters
   LKPOINTS_OPT  =     F    use optional k-point grid
   KPOINTS_OPT_MODE=     1    mode for optional k-point grid
 
 Orbital magnetization related:
   ORBITALMAG=     F  switch on orbital magnetization
   LCHIMAG   =     F  perturbation theory with respect to B field
   DQ        =  0.001000  dq finite difference perturbation B field
   LLRAUG    =     F  two centre corrections for induced B field
   LBONE     =     F  B-component reconstruction in AE one-centre
   LVGVCALC  =     T  calculate vGv susceptibility
   LVGVAPPL  =     F  apply vGv susceptibility instead of pGv for G=0

 Response functions by sum over occupied states:
   ALGO                =  EVGW0   selected many-body perturbation algorithm
   LALL_IN_ONE         =     F    all in one mode selected?
   IALL_IN_ONE         =    -1    all in one mode id
   NBANDS_WAVE         =    -1    number of bands written to file
   LFINITE_TEMPERATURE =     F    use finite temperature formalism
   LFXC                =     F    include DFT xc kernel in TD-HF and W
   LADDER              =     F    particle hole ladder diagrams for BSE/TD-HF and W (Nano-quanta)
   LRPAFORCE           =     F    calculate RPA forces
   LHARTREE            =     T    include Hartree terms (bubbles-RPA) in BSE/TD-HF
   IBSE                =     0    BSE modus: 0 exact, 1 time-evolution (store matrix), 10 time-evolution (implicit)
   KPOINT              =    -1   0   0   0    k-point index at which BSE equation is solved (and G at which response is eval.)
   LTRIPLET            =     F    triplet instead of singlet excitation (BSE only)
   LRSRPA              =     F    range separated RPA (total - short) in ACFDT
   LTCTC               =     F    use test-charge test-charge for self-energy (with ALGO=QPBSE)
   LTCTE               =     F    use test-charge test-electron dielectric function
   LTETE               =     F    use test-electron test-electron dielectric function
   LFXCEPS             =     F    determine f_xc=epsilon-1/Xi Sharma and Gross kernel
   LFXHEG              =     F    model exchange using f_x(G,k_F) from free electron gas
   NATURALO            =     2    0 natural orbitals, 1 only virtual, 2 only occupied-virtual rotation
   LHOLEGF             =     F    use holes in self-consistent GW 
   L2ORDER             =     F    2nd order terms only
   LDMP1               =     F    first order term in ACFDT routine is calculated
   LMP2LT              =     F    use LT MP2
   LSMP2LT             =     F    use stochastic LT MP2
   LGWLF               =     F    use W potentials for exchange like diagrams
   ENCUTGW             = 300.0    cutoff for response function in eV
   ENCUTGWSOFT         = 240.0    soft cutoff for Coulomb kernel in GW response function in eV
   ENCUTLF             =  -1.0    cutoff for local field effects
   LESF_SPLINES        =     F    tricubic splines for electronic structure factor S(q+G)
   LMAXMP2             =    -1    maximum L for one center terms
   SCISSOR             =   0.0    scissor correction
   NOMEGA              =    96    number of frequencies
   NOMEGAR             =    96    number of frequencies along real axis
   NBANDSGW            =    -1    number of bands for which selfenergy shift is calculated
   NBANDSGWLOW         =     1    lowest band included in GW (to exclude core correlation)
   NBANDSO             =    -1    number of bands for electron-hole treatment (occupied)
   NBANDSV             =    -1    number of bands for electron-hole treatment (virtual)
   NELMGW              =     1    number of iterations in solving QP/BSE equation
   NELMHF              =     1    number of iterations in the inner HF iteration
   DIM                 =     3    dimensionality of system (0=0D molecules, 3=3D)
   IEPSILON            =     4    cartesion direction for which dielectric function is calculated (4=all)
   ANTIRES             =     0    antiresonant part (0) no TDA (1) w=0 exact (2) accurate
   OMEGAMAX            = -30.0    maximum frequency
   OMEGAMIN            = -30.0    minimum frequency
   OMEGATL             =-200.0    maximum frequency of tail
   OMEGAGRID           =     0    grid type (0 default)
   CSHIFT              =  -0.1    complex shift used in evaluation of response functions
   LSELFENERGY         =     F    calculate selfenergy instead of QP shifts
   LSPECTRAL           =     T    use spectral functions                   
   LSPECTRALGW         =     F    use spectral functions to calculate int dz G(w-z) W(z) (more accurate)
   LSINGLES            =     F    calculate the singles contribution to the correlation energy
   LFERMIGW            =     F    update Fermi-energy in the Greens function

   ODDONLYGW           =     F    avoid all even points for polarizability 
   EVENONLYGW          =     F    avoid all odd  points for polarizability 
   NKREDLFX            =     1    NKREDLFY  =   1   NKREDLFZ  =   1

   TELESCOPE           =     0    use telescope k-point sampling
   NTAUPAR             =    -1    number of TAU groups used in imaginary time calculation
   NOMEGAPAR           =    -1    number of OMEGA groups used in imaginary frequency calculation
   DAMP_NEWTON         =0.8000    damping for Newton step for position update when RPA forces are used

 Random number generation:
   RANDOM_GENERATOR = DEFAULT
   PCG_SEED         = not used


--------------------------------------------------------------------------------------------------------


 Static calculation
 charge density and potential will be updated during run
 non-spin polarized calculation
 Variant of blocked Davidson
 Davidson routine will perform the subspace rotation
 perform sub-space diagonalisation
    after iterative eigenvector-optimisation
 modified Broyden-mixing scheme, WC =      100.0
 initial mixing is a Kerker type mixing with AMIX =  0.4000 and BMIX =      1.0000
 Hartree-type preconditioning will be used
 using additional bands           234
 reciprocal scheme for non local part
 use partial core corrections
 calculate Harris-corrections to forces 
   (improved forces if not selfconsistent)
 use gradient corrections 
 use of overlap-Matrix (Vanderbilt PP)
 Gauss-broadening in eV      SIGMA  =   0.05


--------------------------------------------------------------------------------------------------------


  energy-cutoff  :      450.00
  volume of cell :      288.42
      direct lattice vectors                 reciprocal lattice vectors
     3.928957644  0.000003224  0.000000941     0.254520312  0.146947103 -0.000000038
    -1.964476013  3.402578464 -0.000000988    -0.000000241  0.293894626  0.000000044
     0.000005099 -0.000003209 21.574688771    -0.000000011  0.000000007  0.046350611

  length of vectors
     3.928957644  3.928957394 21.574688771     0.293894608  0.293894626  0.046350611


 
 old parameters found on file WAVECAR:
  energy-cutoff  :      450.00
  volume of cell :      288.42
      direct lattice vectors                 reciprocal lattice vectors
     3.928957644  0.000003224  0.000000941     0.254520312  0.146947103 -0.000000038
    -1.964476013  3.402578464 -0.000000988    -0.000000241  0.293894626  0.000000044
     0.000005099 -0.000003209 21.574688771    -0.000000011  0.000000007  0.046350611

  length of vectors

 
 k-points in units of 2pi/SCALE and weight: K-Spacing Value to Generate K-Mesh: 0.02
   0.00000000  0.00000000  0.00000000       0.007
   0.02121003  0.01224559 -0.00000000       0.042
   0.04242005  0.02449118 -0.00000001       0.042
   0.06363008  0.03673678 -0.00000001       0.042
   0.08484010  0.04898237 -0.00000001       0.042
   0.10605013  0.06122796 -0.00000002       0.042
   0.12726016  0.07347355 -0.00000002       0.021
   0.02121001  0.03673681  0.00000000       0.042
   0.04242003  0.04898240 -0.00000000       0.083
   0.06363006  0.06122799 -0.00000001       0.083
   0.08484008  0.07347359 -0.00000001       0.083
   0.10605011  0.08571918 -0.00000001       0.083
   0.04242001  0.07347362  0.00000000       0.042
   0.06363004  0.08571921 -0.00000000       0.083
   0.08484006  0.09796481 -0.00000001       0.083
   0.10605009  0.11021040 -0.00000001       0.042
   0.06363002  0.11021043  0.00000000       0.042
   0.08484004  0.12245602 -0.00000000       0.083
   0.08484002  0.14694724  0.00000000       0.014
 
 k-points in reciprocal lattice and weights: K-Spacing Value to Generate K-Mesh: 0.02
   0.00000000  0.00000000  0.00000000       0.007
   0.08333333  0.00000000  0.00000000       0.042
   0.16666667  0.00000000  0.00000000       0.042
   0.25000000  0.00000000  0.00000000       0.042
   0.33333333  0.00000000  0.00000000       0.042
   0.41666667  0.00000000  0.00000000       0.042
   0.50000000  0.00000000  0.00000000       0.021
   0.08333333  0.08333333  0.00000000       0.042
   0.16666667  0.08333333  0.00000000       0.083
   0.25000000  0.08333333  0.00000000       0.083
   0.33333333  0.08333333  0.00000000       0.083
   0.41666667  0.08333333  0.00000000       0.083
   0.16666667  0.16666667  0.00000000       0.042
   0.25000000  0.16666667  0.00000000       0.083
   0.33333333  0.16666667  0.00000000       0.083
   0.41666667  0.16666667  0.00000000       0.042
   0.25000000  0.25000000  0.00000000       0.042
   0.33333333  0.25000000  0.00000000       0.083
   0.33333333  0.33333333  0.00000000       0.014
 
 position of ions in fractional coordinates (direct lattice) 
   0.33333322  0.66666687  0.58752800
   0.66666679  0.33333313  0.41247017
   0.33333320  0.66666678  0.46460535
   0.66666680  0.33333322  0.53539513
   0.99999983  0.00000003  0.33527671
   0.00000016  0.99999997  0.66472464
 
 position of ions in cartesian coordinates  (Angst):
   0.00000402  2.26838551 12.67573331
   1.96448273  1.13419297  8.89891590
   0.00000351  2.26838562 10.02371547
   1.96448324  1.13419285 11.55098361
   3.92895862  0.00000226  7.23349165
  -1.96447192  3.40257622 14.34122623
 


--------------------------------------------------------------------------------------------------------


 k-point   1 :   0.0000 0.0000 0.0000  plane waves:    6279
 k-point   2 :   0.0833 0.0000 0.0000  plane waves:    6245
 k-point   3 :   0.1667 0.0000 0.0000  plane waves:    6216
 k-point   4 :   0.2500 0.0000 0.0000  plane waves:    6248
 k-point   5 :   0.3333 0.0000 0.0000  plane waves:    6260
 k-point   6 :   0.4167 0.0000 0.0000  plane waves:    6282
 k-point   7 :   0.5000 0.0000 0.0000  plane waves:    6242
 k-point   8 :   0.0833 0.0833 0.0000  plane waves:    6239
 k-point   9 :   0.1667 0.0833 0.0000  plane waves:    6241
 k-point  10 :   0.2500 0.0833 0.0000  plane waves:    6254
 k-point  11 :   0.3333 0.0833 0.0000  plane waves:    6260
 k-point  12 :   0.4167 0.0833 0.0000  plane waves:    6274
 k-point  13 :   0.1667 0.1667 0.0000  plane waves:    6245
 k-point  14 :   0.2500 0.1667 0.0000  plane waves:    6245
 k-point  15 :   0.3333 0.1667 0.0000  plane waves:    6256
 k-point  16 :   0.4167 0.1667 0.0000  plane waves:    6264
 k-point  17 :   0.2500 0.2500 0.0000  plane waves:    6233
 k-point  18 :   0.3333 0.2500 0.0000  plane waves:    6255
 k-point  19 :   0.3333 0.3333 0.0000  plane waves:    6285

 maximum and minimum number of plane-waves per node :      6285     6216

 maximum number of plane-waves:      6285
 maximum index in each direction: 
   IXMAX=    6   IYMAX=    6   IZMAX=   37
   IXMIN=   -7   IYMIN=   -7   IZMIN=  -37


 serial   3D FFT for wavefunctions
 parallel 3D FFT for charge:
    minimum data exchange during FFTs selected (reduces bandwidth)

 
 Radii for the augmentation spheres in the non-local exchange
 for species   1 augmentation radius   1.171 (default was   1.171)
 error exchange integrals (PW-AE in eV) (mean, max) 0.316 2.168 density error[0,qmax] 0.0305
 for species   2 augmentation radius   0.959 (default was   0.959)
 error exchange integrals (PW-AE in eV) (mean, max) 0.158 0.446 density error[0,qmax] 0.0073
 for species   3 augmentation radius   0.941 (default was   0.941)
 error exchange integrals (PW-AE in eV) (mean, max) 0.230 0.449 density error[0,qmax] 0.0054
 Maximum index for augmentation-charges in exchange          1056
  SETUP_FOCK is finished

 total amount of memory used by VASP MPI-rank0   152347. kBytes
=======================================================================

   base      :      30000. kBytes
   nonl-proj :      52215. kBytes
   fftplans  :       1711. kBytes
   grid      :       4684. kBytes
   one-center:         93. kBytes
   HF        :        388. kBytes
   nonlr-proj:       1386. kBytes
   wavefun   :      61870. kBytes
 
     INWAV:  cpu time      0.4985: real time      0.5097
 Broyden mixing: mesh for mixing (old mesh)
   NGX = 13   NGY = 13   NGZ = 75
  (NGX  = 40   NGY  = 40   NGZ  =224)
  gives a total of  12675 points

 charge density for first step will be calculated from the start-wavefunctions


--------------------------------------------------------------------------------------------------------


 Maximum index for augmentation-charges          1040 (set IRDMAX)


--------------------------------------------------------------------------------------------------------


 initial charge from wavefunction
    FEWALD:  cpu time      0.0002: real time      0.0002
 available memory per node:    1.44 GB, setting MAXMEM to    1474

 The Fermi energy was updated, please check that it is located mid-gap
 values below the HOMO (VB) or above the LUMO (CB) will cause erroneous energies
 E-fermi :  -0.1014

 Response functions by sum over occupied states:
 ===============================================
   NOMEGA  =    96    number of frequencies
   NOMEGAR =    96    number of frequencies along real axis
   OMEGAMAX=  23.98   maximum frequency
   OMEGAMIN=   0.47   minimum frequency
   OMEGATL = 106.44   maximum frequency of tail
   CSHIFT  =  0.325   complex shift used in evaluation of response functions


 Energies iw= 
 ============
    0.000    0.000    0.389    0.000    0.777    0.000    1.165    0.000
    1.552    0.000    1.937    0.000    2.321    0.000    2.702    0.000
    3.082    0.000    3.459    0.000    3.833    0.000    4.204    0.000
    4.573    0.000    4.938    0.000    5.300    0.000    5.659    0.000
    6.015    0.000    6.368    0.000    6.717    0.000    7.064    0.000
    7.408    0.000    7.748    0.000    8.087    0.000    8.422    0.000
    8.755    0.000    9.087    0.000    9.416    0.000    9.743    0.000
   10.069    0.000   10.394    0.000   10.717    0.000   11.040    0.000
   11.363    0.000   11.685    0.000   12.007    0.000   12.330    0.000
   12.653    0.000   12.978    0.000   13.303    0.000   13.631    0.000
   13.960    0.000   14.292    0.000   14.627    0.000   14.965    0.000
   15.306    0.000   15.652    0.000   16.002    0.000   16.358    0.000
   16.719    0.000   17.086    0.000   17.459    0.000   17.841    0.000
   18.230    0.000   18.628    0.000   19.036    0.000   19.454    0.000
   19.883    0.000   20.325    0.000   20.780    0.000   21.250    0.000
   21.735    0.000   22.238    0.000   22.760    0.000   23.301    0.000
   23.865    0.000   24.454    0.000   25.068    0.000   25.712    0.000
   26.388    0.000   27.098    0.000   27.848    0.000   28.639    0.000
   29.478    0.000   30.368    0.000   31.316    0.000   32.329    0.000
   33.414    0.000   34.580    0.000   35.837    0.000   37.197    0.000
   38.675    0.000   40.287    0.000   42.052    0.000   43.996    0.000
   46.146    0.000   48.539    0.000   51.218    0.000   54.238    0.000
   57.669    0.000   61.601    0.000   66.151    0.000   71.475    0.000
   77.789    0.000   85.394    0.000   94.724    0.000  106.435    0.000
 

IMPORTANT INFORMATION: All symmetrisations will be switched off!
NOSYMM: (Re-)initialisation of all symmetry stuff for point group C_1.

 
 KPOINTS: K-Spacing Value to Generate K-Mesh: 0.02

Automatic generation of k-mesh.
 Grid dimensions read from file:
 generate k-points for:   12   12    1

 Generating k-lattice:

  Cartesian coordinates                     Fractional coordinates (reciprocal lattice)
     0.021210026  0.012245592 -0.000000003     0.083333333  0.000000000 -0.000000000
    -0.000000020  0.024491219  0.000000004     0.000000000  0.083333333  0.000000000
    -0.000000011  0.000000007  0.046350611     0.000000000 -0.000000000  1.000000000

  Length of vectors
     0.024491217  0.024491219  0.046350611

  Shift w.r.t. Gamma in fractional coordinates (k-lattice)
     0.000000000  0.000000000  0.000000000

 
 Subroutine IBZKPT returns following result:
 ===========================================
 
 Found    144 irreducible k-points:
 
 Following reciprocal coordinates:
            Coordinates               Weight
  0.000000  0.000000  0.000000      1.000000
  0.083333  0.000000  0.000000      1.000000
 -0.083333  0.000000  0.000000      1.000000
  0.000000  0.083333  0.000000      1.000000
  0.000000 -0.083333  0.000000      1.000000
 -0.083333  0.083333  0.000000      1.000000
  0.083333 -0.083333  0.000000      1.000000
  0.166667  0.000000  0.000000      1.000000
 -0.166667  0.000000  0.000000      1.000000
  0.000000  0.166667  0.000000      1.000000
  0.000000 -0.166667  0.000000      1.000000
 -0.166667  0.166667  0.000000      1.000000
  0.166667 -0.166667  0.000000      1.000000
  0.250000  0.000000  0.000000      1.000000
 -0.250000  0.000000  0.000000      1.000000
  0.000000  0.250000  0.000000      1.000000
  0.000000 -0.250000  0.000000      1.000000
 -0.250000  0.250000  0.000000      1.000000
  0.250000 -0.250000  0.000000      1.000000
  0.333333  0.000000  0.000000      1.000000
 -0.333333  0.000000  0.000000      1.000000
  0.000000  0.333333  0.000000      1.000000
  0.000000 -0.333333  0.000000      1.000000
 -0.333333  0.333333  0.000000      1.000000
  0.333333 -0.333333  0.000000      1.000000
  0.416667  0.000000  0.000000      1.000000
 -0.416667  0.000000  0.000000      1.000000
  0.000000  0.416667  0.000000      1.000000
  0.000000 -0.416667  0.000000      1.000000
 -0.416667  0.416667  0.000000      1.000000
  0.416667 -0.416667  0.000000      1.000000
  0.500000  0.000000  0.000000      1.000000
  0.000000  0.500000  0.000000      1.000000
  0.500000  0.500000  0.000000      1.000000
  0.083333  0.083333  0.000000      1.000000
 -0.083333 -0.083333  0.000000      1.000000
 -0.083333  0.166667  0.000000      1.000000
  0.083333 -0.166667  0.000000      1.000000
 -0.166667  0.083333  0.000000      1.000000
  0.166667 -0.083333  0.000000      1.000000
  0.166667  0.083333  0.000000      1.000000
 -0.166667 -0.083333  0.000000      1.000000
 -0.083333  0.250000  0.000000      1.000000
  0.083333 -0.250000  0.000000      1.000000
 -0.250000  0.166667  0.000000      1.000000
  0.250000 -0.166667  0.000000      1.000000
 -0.166667  0.250000  0.000000      1.000000
  0.166667 -0.250000  0.000000      1.000000
  0.083333  0.166667  0.000000      1.000000
 -0.083333 -0.166667  0.000000      1.000000
  0.250000 -0.083333  0.000000      1.000000
 -0.250000  0.083333  0.000000      1.000000
  0.250000  0.083333  0.000000      1.000000
 -0.250000 -0.083333  0.000000      1.000000
 -0.083333  0.333333  0.000000      1.000000
  0.083333 -0.333333  0.000000      1.000000
 -0.333333  0.250000  0.000000      1.000000
  0.333333 -0.250000  0.000000      1.000000
 -0.250000  0.333333  0.000000      1.000000
  0.250000 -0.333333  0.000000      1.000000
  0.083333  0.250000  0.000000      1.000000
 -0.083333 -0.250000  0.000000      1.000000
  0.333333 -0.083333  0.000000      1.000000
 -0.333333  0.083333  0.000000      1.000000
  0.333333  0.083333  0.000000      1.000000
 -0.333333 -0.083333  0.000000      1.000000
 -0.083333  0.416667  0.000000      1.000000
  0.083333 -0.416667  0.000000      1.000000
 -0.416667  0.333333  0.000000      1.000000
  0.416667 -0.333333  0.000000      1.000000
 -0.333333  0.416667  0.000000      1.000000
  0.333333 -0.416667  0.000000      1.000000
  0.083333  0.333333  0.000000      1.000000
 -0.083333 -0.333333  0.000000      1.000000
  0.416667 -0.083333  0.000000      1.000000
 -0.416667  0.083333  0.000000      1.000000
  0.416667  0.083333  0.000000      1.000000
 -0.416667 -0.083333  0.000000      1.000000
 -0.083333  0.500000  0.000000      1.000000
  0.083333  0.500000  0.000000      1.000000
  0.500000  0.416667  0.000000      1.000000
  0.500000 -0.416667  0.000000      1.000000
 -0.416667  0.500000  0.000000      1.000000
  0.416667  0.500000  0.000000      1.000000
  0.083333  0.416667  0.000000      1.000000
 -0.083333 -0.416667  0.000000      1.000000
  0.500000 -0.083333  0.000000      1.000000
  0.500000  0.083333  0.000000      1.000000
  0.166667  0.166667  0.000000      1.000000
 -0.166667 -0.166667  0.000000      1.000000
 -0.166667  0.333333  0.000000      1.000000
  0.166667 -0.333333  0.000000      1.000000
 -0.333333  0.166667  0.000000      1.000000
  0.333333 -0.166667  0.000000      1.000000
  0.250000  0.166667  0.000000      1.000000
 -0.250000 -0.166667  0.000000      1.000000
 -0.166667  0.416667  0.000000      1.000000
  0.166667 -0.416667  0.000000      1.000000
 -0.416667  0.250000  0.000000      1.000000
  0.416667 -0.250000  0.000000      1.000000
 -0.250000  0.416667  0.000000      1.000000
  0.250000 -0.416667  0.000000      1.000000
  0.166667  0.250000  0.000000      1.000000
 -0.166667 -0.250000  0.000000      1.000000
  0.416667 -0.166667  0.000000      1.000000
 -0.416667  0.166667  0.000000      1.000000
  0.333333  0.166667  0.000000      1.000000
 -0.333333 -0.166667  0.000000      1.000000
 -0.166667  0.500000  0.000000      1.000000
  0.166667  0.500000  0.000000      1.000000
  0.500000  0.333333  0.000000      1.000000
  0.500000 -0.333333  0.000000      1.000000
 -0.333333  0.500000  0.000000      1.000000
  0.333333  0.500000  0.000000      1.000000
  0.166667  0.333333  0.000000      1.000000
 -0.166667 -0.333333  0.000000      1.000000
  0.500000 -0.166667  0.000000      1.000000
  0.500000  0.166667  0.000000      1.000000
  0.416667  0.166667  0.000000      1.000000
 -0.416667 -0.166667  0.000000      1.000000
 -0.166667 -0.416667  0.000000      1.000000
  0.166667  0.416667  0.000000      1.000000
  0.416667  0.416667  0.000000      1.000000
 -0.416667 -0.416667  0.000000      1.000000
  0.250000  0.250000  0.000000      1.000000
 -0.250000 -0.250000  0.000000      1.000000
 -0.250000  0.500000  0.000000      1.000000
  0.250000  0.500000  0.000000      1.000000
  0.500000  0.250000  0.000000      1.000000
  0.500000 -0.250000  0.000000      1.000000
  0.333333  0.250000  0.000000      1.000000
 -0.333333 -0.250000  0.000000      1.000000
 -0.250000 -0.416667  0.000000      1.000000
  0.250000  0.416667  0.000000      1.000000
  0.416667  0.333333  0.000000      1.000000
 -0.416667 -0.333333  0.000000      1.000000
 -0.333333 -0.416667  0.000000      1.000000
  0.333333  0.416667  0.000000      1.000000
  0.250000  0.333333  0.000000      1.000000
 -0.250000 -0.333333  0.000000      1.000000
 -0.416667 -0.250000  0.000000      1.000000
  0.416667  0.250000  0.000000      1.000000
  0.333333  0.333333  0.000000      1.000000
 -0.333333 -0.333333  0.000000      1.000000
 
 Following cartesian coordinates:
            Coordinates               Weight
  0.000000  0.000000  0.000000      1.000000
  0.021210  0.012246 -0.000000      1.000000
 -0.021210 -0.012246  0.000000      1.000000
 -0.000000  0.024491  0.000000      1.000000
  0.000000 -0.024491 -0.000000      1.000000
 -0.021210  0.012246  0.000000      1.000000
  0.021210 -0.012246 -0.000000      1.000000
  0.042420  0.024491 -0.000000      1.000000
 -0.042420 -0.024491  0.000000      1.000000
 -0.000000  0.048982  0.000000      1.000000
  0.000000 -0.048982 -0.000000      1.000000
 -0.042420  0.024491  0.000000      1.000000
  0.042420 -0.024491 -0.000000      1.000000
  0.063630  0.036737 -0.000000      1.000000
 -0.063630 -0.036737  0.000000      1.000000
 -0.000000  0.073474  0.000000      1.000000
  0.000000 -0.073474 -0.000000      1.000000
 -0.063630  0.036737  0.000000      1.000000
  0.063630 -0.036737 -0.000000      1.000000
  0.084840  0.048982 -0.000000      1.000000
 -0.084840 -0.048982  0.000000      1.000000
 -0.000000  0.097965  0.000000      1.000000
  0.000000 -0.097965 -0.000000      1.000000
 -0.084840  0.048983  0.000000      1.000000
  0.084840 -0.048983 -0.000000      1.000000
  0.106050  0.061228 -0.000000      1.000000
 -0.106050 -0.061228  0.000000      1.000000
 -0.000000  0.122456  0.000000      1.000000
  0.000000 -0.122456 -0.000000      1.000000
 -0.106050  0.061228  0.000000      1.000000
  0.106050 -0.061228 -0.000000      1.000000
  0.127260  0.073474 -0.000000      1.000000
 -0.000000  0.146947  0.000000      1.000000
  0.127260  0.220421  0.000000      1.000000
  0.021210  0.036737  0.000000      1.000000
 -0.021210 -0.036737 -0.000000      1.000000
 -0.021210  0.036737  0.000000      1.000000
  0.021210 -0.036737 -0.000000      1.000000
 -0.042420  0.000000  0.000000      1.000000
  0.042420 -0.000000 -0.000000      1.000000
  0.042420  0.048982 -0.000000      1.000000
 -0.042420 -0.048982  0.000000      1.000000
 -0.021210  0.061228  0.000000      1.000000
  0.021210 -0.061228 -0.000000      1.000000
 -0.063630  0.012246  0.000000      1.000000
  0.063630 -0.012246 -0.000000      1.000000
 -0.042420  0.048982  0.000000      1.000000
  0.042420 -0.048982 -0.000000      1.000000
  0.021210  0.061228  0.000000      1.000000
 -0.021210 -0.061228 -0.000000      1.000000
  0.063630  0.012246 -0.000000      1.000000
 -0.063630 -0.012246  0.000000      1.000000
  0.063630  0.061228 -0.000000      1.000000
 -0.063630 -0.061228  0.000000      1.000000
 -0.021210  0.085719  0.000000      1.000000
  0.021210 -0.085719 -0.000000      1.000000
 -0.084840  0.024491  0.000000      1.000000
  0.084840 -0.024491 -0.000000      1.000000
 -0.063630  0.061228  0.000000      1.000000
  0.063630 -0.061228 -0.000000      1.000000
  0.021210  0.085719  0.000000      1.000000
 -0.021210 -0.085719 -0.000000      1.000000
  0.084840  0.024491 -0.000000      1.000000
 -0.084840 -0.024491  0.000000      1.000000
  0.084840  0.073474 -0.000000      1.000000
 -0.084840 -0.073474  0.000000      1.000000
 -0.021210  0.110211  0.000000      1.000000
  0.021210 -0.110211 -0.000000      1.000000
 -0.106050  0.036737  0.000000      1.000000
  0.106050 -0.036737 -0.000000      1.000000
 -0.084840  0.073474  0.000000      1.000000
  0.084840 -0.073474 -0.000000      1.000000
  0.021210  0.110210  0.000000      1.000000
 -0.021210 -0.110210 -0.000000      1.000000
  0.106050  0.036737 -0.000000      1.000000
 -0.106050 -0.036737  0.000000      1.000000
  0.106050  0.085719 -0.000000      1.000000
 -0.106050 -0.085719  0.000000      1.000000
 -0.021210  0.134702  0.000000      1.000000
  0.021210  0.159193  0.000000      1.000000
  0.127260  0.195930 -0.000000      1.000000
  0.127260 -0.048983 -0.000000      1.000000
 -0.106050  0.085719  0.000000      1.000000
  0.106050  0.208175  0.000000      1.000000
  0.021210  0.134702  0.000000      1.000000
 -0.021210 -0.134702 -0.000000      1.000000
  0.127260  0.048982 -0.000000      1.000000
  0.127260  0.097965 -0.000000      1.000000
  0.042420  0.073474  0.000000      1.000000
 -0.042420 -0.073474 -0.000000      1.000000
 -0.042420  0.073474  0.000000      1.000000
  0.042420 -0.073474 -0.000000      1.000000
 -0.084840  0.000000  0.000000      1.000000
  0.084840 -0.000000 -0.000000      1.000000
  0.063630  0.085719 -0.000000      1.000000
 -0.063630 -0.085719  0.000000      1.000000
 -0.042420  0.097965  0.000000      1.000000
  0.042420 -0.097965 -0.000000      1.000000
 -0.106050  0.012246  0.000000      1.000000
  0.106050 -0.012246 -0.000000      1.000000
 -0.063630  0.085719  0.000000      1.000000
  0.063630 -0.085719 -0.000000      1.000000
  0.042420  0.097965  0.000000      1.000000
 -0.042420 -0.097965 -0.000000      1.000000
  0.106050  0.012246 -0.000000      1.000000
 -0.106050 -0.012246  0.000000      1.000000
  0.084840  0.097965 -0.000000      1.000000
 -0.084840 -0.097965  0.000000      1.000000
 -0.042420  0.122456  0.000000      1.000000
  0.042420  0.171438  0.000000      1.000000
  0.127260  0.171438 -0.000000      1.000000
  0.127260 -0.024491 -0.000000      1.000000
 -0.084840  0.097965  0.000000      1.000000
  0.084840  0.195930  0.000000      1.000000
  0.042420  0.122456  0.000000      1.000000
 -0.042420 -0.122456 -0.000000      1.000000
  0.127260  0.024491 -0.000000      1.000000
  0.127260  0.122456 -0.000000      1.000000
  0.106050  0.110210 -0.000000      1.000000
 -0.106050 -0.110210  0.000000      1.000000
 -0.042420 -0.146947 -0.000000      1.000000
  0.042420  0.146947  0.000000      1.000000
  0.106050  0.183684  0.000000      1.000000
 -0.106050 -0.183684 -0.000000      1.000000
  0.063630  0.110210  0.000000      1.000000
 -0.063630 -0.110210 -0.000000      1.000000
 -0.063630  0.110211  0.000000      1.000000
  0.063630  0.183684  0.000000      1.000000
  0.127260  0.146947 -0.000000      1.000000
  0.127260 -0.000000 -0.000000      1.000000
  0.084840  0.122456 -0.000000      1.000000
 -0.084840 -0.122456  0.000000      1.000000
 -0.063630 -0.159193 -0.000000      1.000000
  0.063630  0.159193  0.000000      1.000000
  0.106050  0.159193 -0.000000      1.000000
 -0.106050 -0.159193  0.000000      1.000000
 -0.084840 -0.171438 -0.000000      1.000000
  0.084840  0.171438  0.000000      1.000000
  0.063630  0.134702  0.000000      1.000000
 -0.063630 -0.134702 -0.000000      1.000000
 -0.106050 -0.134702  0.000000      1.000000
  0.106050  0.134702 -0.000000      1.000000
  0.084840  0.146947  0.000000      1.000000
 -0.084840 -0.146947 -0.000000      1.000000
 
 files read and symmetry switched off, memory is now:
 total amount of memory used by VASP MPI-rank0   977521. kBytes
=======================================================================

   base      :      30000. kBytes
   nonl-proj :     391767. kBytes
   fftplans  :       1711. kBytes
   grid      :       4684. kBytes
   one-center:         93. kBytes
   HF        :        388. kBytes
   nonlr-proj:       1386. kBytes
   wavefun   :     468910. kBytes
   fock_wrk  :      78582. kBytes
 
 Basis sets for responsefunctions:
 =================================
 k-point   1 :   0.0000 0.0000 0.0000  plane waves:    3457
 k-point   2 :   0.0833 0.0000 0.0000  plane waves:    3441
 k-point   3 :   0.1667 0.0000 0.0000  plane waves:    3439
 k-point   4 :   0.2500 0.0000 0.0000  plane waves:    3424
 k-point   5 :   0.3333 0.0000 0.0000  plane waves:    3406
 k-point   6 :   0.4167 0.0000 0.0000  plane waves:    3376
 k-point   7 :   0.5000 0.0000 0.0000  plane waves:    3360
 k-point   8 :   0.0833 0.0833 0.0000  plane waves:    3441
 k-point   9 :   0.1667 0.0833 0.0000  plane waves:    3428
 k-point  10 :   0.2500 0.0833 0.0000  plane waves:    3414
 k-point  11 :   0.3333 0.0833 0.0000  plane waves:    3396
 k-point  12 :   0.4167 0.0833 0.0000  plane waves:    3382
 k-point  13 :   0.1667 0.1667 0.0000  plane waves:    3403
 k-point  14 :   0.2500 0.1667 0.0000  plane waves:    3399
 k-point  15 :   0.3333 0.1667 0.0000  plane waves:    3390
 k-point  16 :   0.4167 0.1667 0.0000  plane waves:    3380
 k-point  17 :   0.2500 0.2500 0.0000  plane waves:    3400
 k-point  18 :   0.3333 0.2500 0.0000  plane waves:    3394
 k-point  19 :   0.3333 0.3333 0.0000  plane waves:    3390
 k-point  20 :  -0.0833-0.0000-0.0000  plane waves:    3441
 k-point  21 :  -0.0000 0.0833-0.0000  plane waves:    3441
 k-point  22 :   0.0000-0.0833 0.0000  plane waves:    3441
 k-point  23 :  -0.0833 0.0833 0.0000  plane waves:    3441
 k-point  24 :   0.0833-0.0833-0.0000  plane waves:    3441
 k-point  25 :  -0.1667-0.0000-0.0000  plane waves:    3439
 k-point  26 :  -0.0000 0.1667-0.0000  plane waves:    3439
 k-point  27 :   0.0000-0.1667 0.0000  plane waves:    3439
 k-point  28 :  -0.1667 0.1667 0.0000  plane waves:    3439
 k-point  29 :   0.1667-0.1667-0.0000  plane waves:    3439
 k-point  30 :  -0.2500-0.0000-0.0000  plane waves:    3424
 k-point  31 :  -0.0000 0.2500-0.0000  plane waves:    3424
 k-point  32 :   0.0000-0.2500 0.0000  plane waves:    3424
 k-point  33 :  -0.2500 0.2500 0.0000  plane waves:    3424
 k-point  34 :   0.2500-0.2500-0.0000  plane waves:    3424
 k-point  35 :  -0.3333-0.0000-0.0000  plane waves:    3406
 k-point  36 :  -0.0000 0.3333-0.0000  plane waves:    3406
 k-point  37 :   0.0000-0.3333 0.0000  plane waves:    3406
 k-point  38 :  -0.3333 0.3333 0.0000  plane waves:    3406
 k-point  39 :   0.3333-0.3333-0.0000  plane waves:    3406
 k-point  40 :  -0.4167-0.0000-0.0000  plane waves:    3376
 k-point  41 :  -0.0000 0.4167-0.0000  plane waves:    3376
 k-point  42 :   0.0000-0.4167 0.0000  plane waves:    3376
 k-point  43 :  -0.4167 0.4167 0.0000  plane waves:    3376
 k-point  44 :   0.4167-0.4167-0.0000  plane waves:    3376
 k-point  45 :   0.0000-0.5000 0.0000  plane waves:    3360
 k-point  46 :  -0.5000 0.5000 0.0000  plane waves:    3360
 k-point  47 :  -0.0833-0.0833-0.0000  plane waves:    3441
 k-point  48 :  -0.0833 0.1667-0.0000  plane waves:    3441
 k-point  49 :   0.0833-0.1667 0.0000  plane waves:    3441
 k-point  50 :  -0.1667 0.0833 0.0000  plane waves:    3441
 k-point  51 :   0.1667-0.0833-0.0000  plane waves:    3441
 k-point  52 :  -0.1667-0.0833-0.0000  plane waves:    3428
 k-point  53 :  -0.0833 0.2500-0.0000  plane waves:    3428
 k-point  54 :   0.0833-0.2500 0.0000  plane waves:    3428
 k-point  55 :  -0.2500 0.1667 0.0000  plane waves:    3428
 k-point  56 :   0.2500-0.1667-0.0000  plane waves:    3428
 k-point  57 :  -0.1667 0.2500 0.0000  plane waves:    3428
 k-point  58 :   0.1667-0.2500-0.0000  plane waves:    3428
 k-point  59 :   0.0833 0.1667-0.0000  plane waves:    3428
 k-point  60 :  -0.0833-0.1667 0.0000  plane waves:    3428
 k-point  61 :   0.2500-0.0833 0.0000  plane waves:    3428
 k-point  62 :  -0.2500 0.0833-0.0000  plane waves:    3428
 k-point  63 :  -0.2500-0.0833-0.0000  plane waves:    3414
 k-point  64 :  -0.0833 0.3333-0.0000  plane waves:    3414
 k-point  65 :   0.0833-0.3333 0.0000  plane waves:    3414
 k-point  66 :  -0.3333 0.2500 0.0000  plane waves:    3414
 k-point  67 :   0.3333-0.2500-0.0000  plane waves:    3414
 k-point  68 :  -0.2500 0.3333 0.0000  plane waves:    3414
 k-point  69 :   0.2500-0.3333-0.0000  plane waves:    3414
 k-point  70 :   0.0833 0.2500-0.0000  plane waves:    3414
 k-point  71 :  -0.0833-0.2500 0.0000  plane waves:    3414
 k-point  72 :   0.3333-0.0833 0.0000  plane waves:    3414
 k-point  73 :  -0.3333 0.0833-0.0000  plane waves:    3414
 k-point  74 :  -0.3333-0.0833-0.0000  plane waves:    3396
 k-point  75 :  -0.0833 0.4167-0.0000  plane waves:    3396
 k-point  76 :   0.0833-0.4167 0.0000  plane waves:    3396
 k-point  77 :  -0.4167 0.3333 0.0000  plane waves:    3396
 k-point  78 :   0.4167-0.3333-0.0000  plane waves:    3396
 k-point  79 :  -0.3333 0.4167 0.0000  plane waves:    3396
 k-point  80 :   0.3333-0.4167-0.0000  plane waves:    3396
 k-point  81 :   0.0833 0.3333-0.0000  plane waves:    3396
 k-point  82 :  -0.0833-0.3333 0.0000  plane waves:    3396
 k-point  83 :   0.4167-0.0833 0.0000  plane waves:    3396
 k-point  84 :  -0.4167 0.0833-0.0000  plane waves:    3396
 k-point  85 :  -0.4167-0.0833-0.0000  plane waves:    3382
 k-point  86 :  -0.0833 0.5000-0.0000  plane waves:    3382
 k-point  87 :   0.0833-0.5000 0.0000  plane waves:    3382
 k-point  88 :  -0.5000 0.4167 0.0000  plane waves:    3382
 k-point  89 :   0.5000-0.4167-0.0000  plane waves:    3382
 k-point  90 :  -0.4167 0.5000 0.0000  plane waves:    3382
 k-point  91 :   0.4167-0.5000-0.0000  plane waves:    3382
 k-point  92 :   0.0833 0.4167-0.0000  plane waves:    3382
 k-point  93 :  -0.0833-0.4167 0.0000  plane waves:    3382
 k-point  94 :   0.5000-0.0833 0.0000  plane waves:    3382
 k-point  95 :  -0.5000 0.0833-0.0000  plane waves:    3382
 k-point  96 :  -0.1667-0.1667-0.0000  plane waves:    3403
 k-point  97 :  -0.1667 0.3333-0.0000  plane waves:    3403
 k-point  98 :   0.1667-0.3333 0.0000  plane waves:    3403
 k-point  99 :  -0.3333 0.1667 0.0000  plane waves:    3403
 k-point 100 :   0.3333-0.1667-0.0000  plane waves:    3403
 k-point 101 :  -0.2500-0.1667-0.0000  plane waves:    3399
 k-point 102 :  -0.1667 0.4167-0.0000  plane waves:    3399
 k-point 103 :   0.1667-0.4167 0.0000  plane waves:    3399
 k-point 104 :  -0.4167 0.2500 0.0000  plane waves:    3399
 k-point 105 :   0.4167-0.2500-0.0000  plane waves:    3399
 k-point 106 :  -0.2500 0.4167 0.0000  plane waves:    3399
 k-point 107 :   0.2500-0.4167-0.0000  plane waves:    3399
 k-point 108 :   0.1667 0.2500-0.0000  plane waves:    3399
 k-point 109 :  -0.1667-0.2500 0.0000  plane waves:    3399
 k-point 110 :   0.4167-0.1667 0.0000  plane waves:    3399
 k-point 111 :  -0.4167 0.1667-0.0000  plane waves:    3399
 k-point 112 :  -0.3333-0.1667-0.0000  plane waves:    3390
 k-point 113 :  -0.1667 0.5000-0.0000  plane waves:    3390
 k-point 114 :   0.1667-0.5000 0.0000  plane waves:    3390
 k-point 115 :  -0.5000 0.3333 0.0000  plane waves:    3390
 k-point 116 :   0.5000-0.3333-0.0000  plane waves:    3390
 k-point 117 :  -0.3333 0.5000 0.0000  plane waves:    3390
 k-point 118 :   0.3333-0.5000-0.0000  plane waves:    3390
 k-point 119 :   0.1667 0.3333-0.0000  plane waves:    3390
 k-point 120 :  -0.1667-0.3333 0.0000  plane waves:    3390
 k-point 121 :   0.5000-0.1667 0.0000  plane waves:    3390
 k-point 122 :  -0.5000 0.1667-0.0000  plane waves:    3390
 k-point 123 :  -0.4167-0.1667-0.0000  plane waves:    3380
 k-point 124 :  -0.1667 0.5833-0.0000  plane waves:    3380
 k-point 125 :   0.1667-0.5833 0.0000  plane waves:    3380
 k-point 126 :  -0.5833 0.4167 0.0000  plane waves:    3380
 k-point 127 :   0.5833-0.4167-0.0000  plane waves:    3380
 k-point 128 :  -0.2500-0.2500-0.0000  plane waves:    3400
 k-point 129 :  -0.2500 0.5000-0.0000  plane waves:    3400
 k-point 130 :   0.2500-0.5000 0.0000  plane waves:    3400
 k-point 131 :  -0.5000 0.2500 0.0000  plane waves:    3400
 k-point 132 :   0.5000-0.2500-0.0000  plane waves:    3400
 k-point 133 :  -0.3333-0.2500-0.0000  plane waves:    3394
 k-point 134 :  -0.2500 0.5833-0.0000  plane waves:    3394
 k-point 135 :   0.2500-0.5833 0.0000  plane waves:    3394
 k-point 136 :  -0.5833 0.3333 0.0000  plane waves:    3394
 k-point 137 :   0.5833-0.3333-0.0000  plane waves:    3394
 k-point 138 :  -0.3333 0.5833 0.0000  plane waves:    3394
 k-point 139 :   0.3333-0.5833-0.0000  plane waves:    3394
 k-point 140 :   0.2500 0.3333-0.0000  plane waves:    3394
 k-point 141 :  -0.2500-0.3333 0.0000  plane waves:    3394
 k-point 142 :   0.5833-0.2500 0.0000  plane waves:    3394
 k-point 143 :  -0.5833 0.2500-0.0000  plane waves:    3394
 k-point 144 :  -0.3333-0.3333-0.0000  plane waves:    3390

 maximum and minimum number of plane-waves per node :      3457     3360

 maximum number of plane-waves:      3457
 maximum index in each direction: 
   IXMAX=    6   IYMAX=    6   IZMAX=   30
   IXMIN=   -6   IYMIN=   -6   IZMIN=  -30

 exchange correlation table for  LEXCH =        8
   RHO(1)=    0.500       N(1)  =     2000
   RHO(2)=  100.500       N(2)  =     4000
 -----------------------------------------------------------------------------
[...]
     47       9.4219       9.9221      -7.4921      -8.1352      -3.5920       0.7777       0.0000      -0.3971
     48       9.5879       9.8971      -5.5977      -5.9779      -2.5471       0.8134       0.0000      -0.2898

 k-point  17 :       0.2500    0.2500    0.0000
  band No.  KS-energies  QP-energies   sigma(KS)   V_xc(KS)     V^pw_x(r,r')   Z            occupation Imag(sigma)

      1     -31.7308     -33.0294     -16.9625     -14.7205     -23.5354       0.5792       2.0000       0.4957
      2     -31.7278     -33.0331     -16.9717     -14.7188     -23.5317       0.5794       2.0000       0.4741
      3     -31.7158     -33.0083     -16.9845     -14.7370     -23.5287       0.5751       2.0000       0.4048
      4     -31.7091     -33.0288     -16.9980     -14.7455     -23.5306       0.5859       2.0000       0.3847
      5     -31.6948     -33.0030     -16.9999     -14.7398     -23.5092       0.5789       2.0000       0.3940
      6     -31.6926     -32.9996     -16.9953     -14.7403     -23.5106       0.5796       2.0000       0.3941
      7     -16.6142     -17.0585     -16.1047     -15.3808     -24.4322       0.6137       2.0000       1.0394
      8     -16.6142     -17.0585     -16.1047     -15.3808     -24.4322       0.6137       2.0000       1.0394
      9     -11.2632     -11.5950     -12.7568     -12.2584     -18.8487       0.6657       2.0000       0.9800
     10      -9.8843     -10.2681     -13.0769     -12.5109     -18.5659       0.6781       2.0000       0.8327
     11      -6.2678      -6.9135     -13.1459     -12.2091     -16.6828       0.6892       2.0000       0.3035
     12      -5.8232      -6.6206     -13.9714     -12.8062     -17.3189       0.6844       2.0000       0.1777
     13      -5.4788      -6.0056     -12.7894     -12.0277     -16.1278       0.6916       2.0000       0.2904
     14      -5.3552      -6.1060     -14.3333     -13.2412     -17.6047       0.6875       2.0000       0.1623
     15      -5.3078      -6.0414     -14.1923     -13.1272     -17.4521       0.6888       2.0000       0.1642
     16      -5.1986      -5.9743     -14.5502     -13.4188     -17.8668       0.6856       2.0000       0.1508
     17      -4.9563      -5.4927     -13.6584     -12.8794     -16.8903       0.6887       2.0000       0.2198
     18      -4.0183      -4.4581     -13.4819     -12.8656     -16.3384       0.7136       2.0000       0.2044
     19      -3.9869      -4.2658     -12.7482     -12.3602     -15.4772       0.7189       2.0000       0.2523
     20      -1.7233      -1.8656     -12.0760     -11.8745     -13.5538       0.7059       2.0000       0.0960
     21      -1.2150      -1.3179     -12.3669     -12.2228     -13.4091       0.7142       2.0000       0.0684
     22      -0.5677      -0.6171     -12.5730     -12.5046     -13.3097       0.7208       2.0000       0.0475
     23       0.8222       1.4574     -11.1926     -12.0863      -7.7082       0.7108       0.0000      -0.0985
     24       0.9340       1.5919     -11.3270     -12.2622      -7.6841       0.7036       0.0000      -0.1105
     25       1.7986       2.4718     -11.3060     -12.2840      -7.0094       0.6883       0.0000      -0.1636
     26       1.8701       2.5658     -11.4544     -12.4723      -7.0512       0.6835       0.0000      -0.1738
     27       3.0845       3.7193     -11.2956     -12.1941      -6.9107       0.7065       0.0000      -0.2153
     28       3.1847       3.8167     -10.5547     -11.4327      -6.0629       0.7199       0.0000      -0.2338
     29       3.3308       4.0478     -11.1367     -12.1472      -6.6934       0.7096       0.0000      -0.2204
     30       3.7409       4.5457     -11.7442     -12.8899      -7.2537       0.7024       0.0000      -0.2364
     31       4.1133       4.8328     -10.6863     -11.6930      -6.0492       0.7148       0.0000      -0.2939
     32       4.5620       5.2401     -10.5986     -11.5314      -6.1171       0.7269       0.0000      -0.3051
     33       5.2607       6.0063     -10.2867     -11.3083      -5.6387       0.7299       0.0000      -0.3069
     34       5.7153       6.1663      -7.6966      -8.2782      -3.9070       0.7754       0.0000      -0.2553
     35       6.0219       6.4382      -6.8264      -7.3575      -3.5017       0.7841       0.0000      -0.2238
     36       6.1333       6.3461      -4.3299      -4.5892      -1.8415       0.8209       0.0000      -0.1527
     37       7.0603       6.8964      -2.9435      -2.7554      -1.2531       0.8716       0.0000      -0.1054
     38       7.1785       7.7457      -8.2308      -8.9678      -4.3016       0.7695       0.0000      -0.2644
     39       7.4657       7.9822      -7.1099      -7.7766      -3.4007       0.7748       0.0000      -0.2538
     40       7.6493       8.3188      -8.9203      -9.7935      -4.5570       0.7668       0.0000      -0.4248
     41       7.7756       8.0703      -5.6376      -6.0022      -2.5785       0.8084       0.0000      -0.2652
     42       8.0658       8.5789      -8.5060      -9.1748      -4.2759       0.7673       0.0000      -0.3612
     43       8.4855       8.8613      -5.5183      -5.9867      -2.5028       0.8023       0.0000      -0.2425
     44       8.5220       9.1439      -8.4756      -9.2837      -4.0997       0.7696       0.0000      -0.4754
     45       8.8339       9.0727      -4.4382      -4.7266      -1.9029       0.8279       0.0000      -0.1933
     46       9.2505       9.7195      -6.8042      -7.3990      -3.0249       0.7884       0.0000      -0.3917
     47       9.3060       9.7280      -6.4570      -6.9907      -2.9315       0.7908       0.0000      -0.2906
     48       9.7261       9.6900      -3.1667      -3.1246      -1.1408       0.8590       0.0000      -0.1704

 k-point  18 :       0.3333    0.2500    0.0000
  band No.  KS-energies  QP-energies   sigma(KS)   V_xc(KS)     V^pw_x(r,r')   Z            occupation Imag(sigma)

      1     -31.7299     -33.0351     -16.9688     -14.7187     -23.5338       0.5801       2.0000       0.4855
      2     -31.7299     -33.0351     -16.9688     -14.7187     -23.5338       0.5801       2.0000       0.4855
      3     -31.7135     -33.0167     -16.9888     -14.7392     -23.5310       0.5793       2.0000       0.4002
      4     -31.7102     -33.0145     -16.9938     -14.7430     -23.5304       0.5794       2.0000       0.3902
      5     -31.7029     -33.0136     -16.9986     -14.7360     -23.5182       0.5793       2.0000       0.4036
      6     -31.7004     -33.0085     -16.9927     -14.7358     -23.5193       0.5796       2.0000       0.4030
      7     -16.5939     -17.0403     -16.1278     -15.4060     -24.4498       0.6184       2.0000       1.0347
      8     -16.5939     -17.0403     -16.1278     -15.4060     -24.4498       0.6184       2.0000       1.0347
      9     -10.8918     -11.2315     -12.8560     -12.3466     -18.7923       0.6668       2.0000       0.9321
     10     -10.1897     -10.5560     -13.0126     -12.4674     -18.6404       0.6718       2.0000       0.8555
     11      -6.2275      -6.8981     -13.1869     -12.2161     -16.7056       0.6907       2.0000       0.2903
     12      -5.8394      -6.6383     -13.9804     -12.8112     -17.3392       0.6832       2.0000       0.1795
     13      -5.6084      -6.2355     -13.3109     -12.4020     -16.6413       0.6900       2.0000       0.2441
     14      -5.5248      -6.1766     -13.5703     -12.6213     -16.8853       0.6868       2.0000       0.2151
     15      -5.4060      -6.0969     -13.7288     -12.7273     -16.9911       0.6899       2.0000       0.1942
     16      -5.1124      -5.8829     -14.6216     -13.4989     -17.9615       0.6863       2.0000       0.1536
     17      -4.9572      -5.5748     -14.1727     -13.2736     -17.4445       0.6869       2.0000       0.1903
     18      -4.0848      -4.4786     -13.1834     -12.6305     -16.0396       0.7123       2.0000       0.2251
     19      -4.0524      -4.3701     -12.9130     -12.4700     -15.7137       0.7171       2.0000       0.2474
     20      -1.7377      -1.8981     -12.0796     -11.8521     -13.6221       0.7046       2.0000       0.0975
     21      -0.9924      -1.0658     -12.2260     -12.1236     -13.0800       0.7168       2.0000       0.0597
     22      -0.6584      -0.7109     -12.3782     -12.3052     -13.0810       0.7200       2.0000       0.0489
     23       0.8507       1.4821     -11.1514     -12.0411      -7.5927       0.7097       0.0000      -0.1021
     24       1.1764       1.8423     -11.3614     -12.3124      -7.5850       0.7001       0.0000      -0.1209
     25       1.5355       2.2230     -11.4777     -12.4678      -7.4997       0.6943       0.0000      -0.1399
     26       1.6518       2.3414     -11.5013     -12.5006      -7.4004       0.6901       0.0000      -0.1512
     27       3.3113       3.9906     -11.2370     -12.2022      -6.6855       0.7038       0.0000      -0.2386
     28       3.5557       4.2878     -11.3052     -12.3425      -6.6614       0.7058       0.0000      -0.2585
     29       3.7221       4.4764     -11.5469     -12.6128      -6.7448       0.7077       0.0000      -0.3034
     30       3.7653       4.4839     -11.4085     -12.4221      -6.7894       0.7090       0.0000      -0.2792
     31       4.1950       4.9040     -10.7677     -11.7597      -6.1233       0.7147       0.0000      -0.3043
     32       4.2723       4.9655     -10.9620     -11.9234      -6.3660       0.7210       0.0000      -0.3078
     33       5.1943       5.9190     -10.1400     -11.1300      -5.5455       0.7320       0.0000      -0.2953
     34       5.8638       6.5531     -10.4686     -11.4037      -5.7346       0.7371       0.0000      -0.3459
     35       6.4222       6.7940      -5.8368      -6.3022      -2.7730       0.7989       0.0000      -0.1821
     36       6.6443       6.9438      -4.9333      -5.3046      -2.1268       0.8066       0.0000      -0.1697
     37       6.8916       7.4137      -7.7895      -8.4632      -4.0799       0.7749       0.0000      -0.2481
     38       7.2108       7.6929      -6.7433      -7.3566      -3.1885       0.7860       0.0000      -0.2731
     39       7.3455       7.7903      -6.7705      -7.3367      -3.2773       0.7856       0.0000      -0.2484
     40       7.7920       7.6950      -2.8365      -2.7241      -1.0911       0.8636       0.0000      -0.1084
     41       7.8876       8.2183      -5.0100      -5.4175      -2.1957       0.8116       0.0000      -0.1978
     42       8.2435       8.6941      -7.7782      -8.3528      -3.7856       0.7843       0.0000      -0.3722
     43       8.5031       8.7377      -4.9681      -5.2541      -2.2166       0.8204       0.0000      -0.2265
     44       8.5987       9.0494      -6.9736      -7.5471      -3.2698       0.7858       0.0000      -0.3666
     45       8.8311       9.2841      -6.5548      -7.1267      -3.0266       0.7922       0.0000      -0.3192
     46       9.0473       8.9710      -2.9362      -2.8479      -1.1121       0.8634       0.0000      -0.1320
     47       9.2307       9.3417      -4.2653      -4.3980      -1.8115       0.8358       0.0000      -0.1952
     48       9.4011       9.7801      -6.7577      -7.2331      -3.1127       0.7970       0.0000      -0.3968

 k-point  19 :       0.3333    0.3333    0.0000
  band No.  KS-energies  QP-energies   sigma(KS)   V_xc(KS)     V^pw_x(r,r')   Z            occupation Imag(sigma)

      1     -31.7243     -33.0290     -16.9702     -14.7251     -23.5269       0.5812       2.0000       0.4830
      2     -31.7243     -33.0290     -16.9702     -14.7251     -23.5269       0.5812       2.0000       0.4830
      3     -31.7153     -33.0205     -16.9888     -14.7246     -23.5295       0.5764       2.0000       0.4188
      4     -31.7097     -33.0185     -16.9942     -14.7376     -23.5301       0.5800       2.0000       0.3969
      5     -31.7097     -33.0185     -16.9942     -14.7376     -23.5301       0.5800       2.0000       0.3969
      6     -31.7097     -33.0185     -16.9942     -14.7376     -23.5301       0.5800       2.0000       0.3969
      7     -16.5865     -17.0327     -16.1362     -15.4152     -24.4560       0.6188       2.0000       1.0328
      8     -16.5865     -17.0327     -16.1362     -15.4152     -24.4560       0.6188       2.0000       1.0328
      9     -10.5262     -10.8767     -12.9433     -12.4183     -18.7223       0.6674       2.0000       0.8894
     10     -10.5262     -10.8767     -12.9433     -12.4183     -18.7223       0.6674       2.0000       0.8894
     11      -5.9228      -6.6323     -13.5725     -12.5382     -16.9759       0.6860       2.0000       0.2335
     12      -5.9228      -6.6323     -13.5725     -12.5382     -16.9759       0.6860       2.0000       0.2335
     13      -5.6833      -6.4762     -14.1375     -12.9789     -17.4498       0.6843       2.0000       0.1664
     14      -5.6833      -6.4762     -14.1375     -12.9789     -17.4498       0.6843       2.0000       0.1664
     15      -5.5919      -5.9820     -11.8882     -11.3256     -15.2723       0.6935       2.0000       0.3456
     16      -5.0723      -5.8462     -14.7000     -13.5728     -18.0323       0.6866       2.0000       0.1490
     17      -4.9640      -5.6290     -14.4523     -13.4799     -17.7449       0.6839       2.0000       0.1736
     18      -4.0824      -4.4390     -13.0506     -12.5514     -15.8935       0.7144       2.0000       0.2381
     19      -4.0824      -4.4390     -13.0506     -12.5514     -15.8935       0.7144       2.0000       0.2381
     20      -1.7011      -1.8723     -12.1013     -11.8589     -13.6949       0.7061       2.0000       0.0967
     21      -0.8136      -0.8654     -12.1579     -12.0858     -12.8313       0.7185       2.0000       0.0523
     22      -0.8136      -0.8654     -12.1579     -12.0858     -12.8313       0.7185       2.0000       0.0523
     23       1.0249       1.6783     -11.4195     -12.3333      -8.0259       0.7150       0.0000      -0.0973
     24       1.2458       1.9049     -11.2945     -12.2462      -7.2828       0.6925       0.0000      -0.1357
     25       1.2458       1.9049     -11.2945     -12.2462      -7.2828       0.6925       0.0000      -0.1357
     26       1.5157       2.2253     -11.7672     -12.7813      -8.0608       0.6997       0.0000      -0.1247
     27       3.5507       4.3246     -11.5370     -12.6435      -7.0542       0.6995       0.0000      -0.2255
     28       3.5507       4.3246     -11.5370     -12.6435      -7.0542       0.6995       0.0000      -0.2255
     29       3.8936       4.6263     -11.3323     -12.3601      -6.1865       0.7128       0.0000      -0.3838
     30       3.9789       4.6549     -11.3183     -12.2627      -6.3747       0.7159       0.0000      -0.3596
     31       4.2988       4.9906     -11.1164     -12.0817      -6.4113       0.7167       0.0000      -0.3366
     32       4.2988       4.9906     -11.1164     -12.0817      -6.4113       0.7167       0.0000      -0.3366
     33       5.4602       6.1801     -10.2405     -11.2173      -5.6154       0.7370       0.0000      -0.2938
     34       5.4602       6.1801     -10.2405     -11.2173      -5.6154       0.7370       0.0000      -0.2938
     35       6.5107       7.1336      -9.6212     -10.4422      -5.4345       0.7589       0.0000      -0.2734
     36       6.9270       7.3266      -5.6165      -6.1188      -2.4972       0.7955       0.0000      -0.1962
     37       6.9270       7.3266      -5.6165      -6.1188      -2.4972       0.7955       0.0000      -0.1962
     38       7.0949       7.4672      -5.6573      -6.1237      -2.5219       0.7983       0.0000      -0.2074
     39       7.0949       7.4672      -5.6573      -6.1237      -2.5219       0.7983       0.0000      -0.2074
     40       8.0483       8.2658      -3.8136      -4.0739      -1.4969       0.8358       0.0000      -0.1519
     41       8.0483       8.2658      -3.8136      -4.0739      -1.4969       0.8358       0.0000      -0.1519
     42       8.4237       8.8555      -6.7458      -7.2929      -3.1977       0.7893       0.0000      -0.3003
     43       8.4237       8.8555      -6.7458      -7.2929      -3.1977       0.7893       0.0000      -0.3003
     44       8.5602       8.9502      -8.0275      -8.5223      -3.7404       0.7882       0.0000      -0.4544
     45       8.8380       8.6074      -2.4001      -2.1380      -0.8825       0.8798       0.0000      -0.1153
     46       8.8380       8.6074      -2.4001      -2.1380      -0.8825       0.8798       0.0000      -0.1153
     47       9.3883       9.2654      -2.4453      -2.3046      -0.8374       0.8735       0.0000      -0.1146
     48       9.4574       9.7666      -6.1951      -6.5802      -2.8733       0.8028       0.0000      -0.3155


--------------------------------------------------------------------------------------------------------


  QP_SHIFT:  cpu time      1.0772: real time      2.2182
    GWLOOP:  cpu time  32937.9483: real time  33517.8551
  LATTYP: Found a hexagonal cell.
 ALAT       =     3.9289576444
 C/A-ratio  =     5.4911991230
  
  Lattice vectors:
  
 A1 = (   3.9289576444,   0.0000032244,   0.0000009405)
 A2 = (  -1.9644760126,   3.4025784636,  -0.0000009876)
 A3 = (   0.0000050992,  -0.0000032086,  21.5746887712)


Analysis of symmetry for initial positions (statically):
=====================================================================
 Subroutine PRICEL returns:
 Original cell was already a primitive cell.
 

 Routine SETGRP: Setting up the symmetry group for a 
 hexagonal supercell.


 Subroutine GETGRP returns: Found 12 space group operations
 (whereof 12 operations were pure point group operations)
 out of a pool of 24 trial point group operations.


The static configuration has the point symmetry D_3d.


Analysis of symmetry for dynamics (positions and initial velocities):
=====================================================================
 Subroutine PRICEL returns:
 Original cell was already a primitive cell.
 

 Routine SETGRP: Setting up the symmetry group for a 
 hexagonal supercell.


 Subroutine GETGRP returns: Found 12 space group operations
 (whereof 12 operations were pure point group operations)
 out of a pool of 24 trial point group operations.


The dynamic configuration has the point symmetry D_3d.


 Subroutine INISYM returns: Found 12 space group operations
 (whereof 12 operations are pure point group operations),
 and found     1 'primitive' translations

 writing wavefunctions
    --------------------------------------------
   GWTOTAL:  cpu time  32940.7040: real time  33522.4031
    4ORBIT:  cpu time      0.0000: real time      0.0000

 total amount of memory used by VASP MPI-rank0   230929. kBytes
=======================================================================

   base      :      30000. kBytes
   nonl-proj :      52215. kBytes
   fftplans  :       1711. kBytes
   grid      :       4684. kBytes
   one-center:         93. kBytes
   HF        :        388. kBytes
   nonlr-proj:       1386. kBytes
   wavefun   :      61870. kBytes
   fock_wrk  :      78582. kBytes
   2eintegral:          0. kBytes
   response  :          0. kBytes
 
  
  
 General timing and accounting informations for this job:
 ========================================================
  
                  Total CPU time used (sec):    32942.465
                            User time (sec):    27813.645
                          System time (sec):     5128.819
                         Elapsed time (sec):    33524.227
  
                   Maximum memory used (kb):     2218520.
                   Average memory used (kb):          N/A
  
                          Minor page faults:    128357188
                          Major page faults:       415911
                 Voluntary context switches:       390714
