 vasp.6.4.2 20Jul23 (build Jan 14 2026 17:23:08) complex                         
 executed on             LinuxGNU date 2026.03.26  06:04:43
 running    8 mpi-ranks, with    1 threads/rank, on    1 nodes
 distrk:  each k-point on    4 cores,    2 groups
 distr:  one band on NCORE=   1 cores,    4 groups


--------------------------------------------------------------------------------------------------------


 INCAR:
   SYSTEM = BSE
   PREC = Normal
   ENCUT = 450
   ALGO = EVGW0
   ISMEAR = 0
   SIGMA = 0.05
   NELM = 1
   NBANDS = 256
   NOMEGA = 96
   LWAVE = .TRUE.
   LSPECTRAL = .TRUE.
   LOPTICS = .TRUE.
   KPAR = 2

 POTCAR:    PAW_PBE Zr_sv_GW 05Dec2013            
 POTCAR:    PAW_PBE P_GW 19Mar2012                
 POTCAR:    PAW_PBE Cl_GW 19Mar2012               
 POTCAR:    PAW_PBE Zr_sv_GW 05Dec2013            
   VRHFIN =Zr: 4s4p5s4d                                                                             
   LEXCH  = PE                                                                                      
   EATOM  =  1282.4732 eV,   94.2591 Ry                                                             
                                                                                                    
   TITEL  = PAW_PBE Zr_sv_GW 05Dec2013                                                              
   LULTRA =        F    use ultrasoft PP ?                                                          
   IUNSCR =        1    unscreen: 0-lin 1-nonlin 2-no                                               
   RPACOR =    2.000    partial core radius                                                         
   POMASS =   91.224; ZVAL   =   12.000    mass and valenz                                          
   RCORE  =    2.100    outmost cutoff radius                                                       
   RWIGS  =    2.100; RWIGS  =    1.111    wigner-seitz radius (au A)                               
   ENMAX  =  346.364; ENMIN  =  259.773 eV                                                          
   RCLOC  =    1.507    cutoff for local pot                                                        
   LCOR   =        T    correct aug charges                                                         
   LPAW   =        T    paw PP                                                                      
   EAUG   =  997.710                                                                                
   DEXC   =    0.000                                                                                
   RMAX   =    2.148    core radius for proj-oper                                                   
   RAUG   =    1.300    factor for augmentation sphere                                              
   RDEP   =    2.143    radius for radial grids                                                     
   RDEPT  =    1.649    core radius for aug-charge                                                  
                                                                                                    
   Atomic configuration                                                                             
   12 entries                                                                                       
     n  l   j            E        occ.                                                              
     1  0  0.50    -17818.6685   2.0000                                                             
     2  0  0.50     -2465.6021   2.0000                                                             
     2  1  1.50     -2198.1340   6.0000                                                             
     3  0  0.50      -401.0142   2.0000                                                             
     3  1  1.50      -313.8944   6.0000                                                             
     3  2  2.50      -170.9640  10.0000                                                             
     4  0  0.50       -50.9911   2.0000                                                             
     4  0  0.50       -54.4233   0.0000                                                             
     4  1  1.50       -29.1735   6.0000                                                             
     4  1  1.50       -32.6540   0.0000                                                             
     4  2  2.50        -1.5353   4.0000                                                             
     4  3  2.50        -1.3606   0.0000                                                             
   Description                                                                                      
     l       E           TYP  RCUT    TYP  RCUT                                                     
     0    -50.9911009     23  1.300                                                                 
     0    -54.4233040     23  1.300                                                                 
     1    -29.1735311     23  1.800                                                                 
     1    -32.6539824     23  1.800                                                                 
     1     95.2407820     23  1.800                                                                 
     2     -1.5352847     23  2.000                                                                 
     2     -6.8029130     23  2.000                                                                 
     2    136.0582600     23  2.000                                                                 
     3     13.6058260     23  2.100                                                                 
     3     81.6349560     23  2.100                                                                 
  local pseudopotential read in
  partial core-charges read in
  partial kinetic energy density read in
  kinetic energy density of atom read in
  atomic valenz-charges read in
  non local Contribution for L=            0  read in
    real space projection operators read in
  non local Contribution for L=            0  read in
    real space projection operators read in
  non local Contribution for L=            1  read in
    real space projection operators read in
  non local Contribution for L=            1  read in
    real space projection operators read in
  non local Contribution for L=            1  read in
    real space projection operators read in
  non local Contribution for L=            2  read in
    real space projection operators read in
  non local Contribution for L=            2  read in
    real space projection operators read in
  non local Contribution for L=            2  read in
    real space projection operators read in
  non local Contribution for L=            3  read in
    real space projection operators read in
  non local Contribution for L=            3  read in
    real space projection operators read in
    PAW grid and wavefunctions read in
 
   number of l-projection  operators is LMAX  =           10
   number of lm-projection operators is LMMAX =           40
 
 POTCAR:    PAW_PBE P_GW 19Mar2012                
   VRHFIN =P : s2p3                                                                                 
   LEXCH  = PE                                                                                      
   EATOM  =   176.0430 eV,   12.9388 Ry                                                             
                                                                                                    
   TITEL  = PAW_PBE P_GW 19Mar2012                                                                  
   LULTRA =        F    use ultrasoft PP ?                                                          
   IUNSCR =        1    unscreen: 0-lin 1-nonlin 2-no                                               
   RPACOR =    1.400    partial core radius                                                         
   POMASS =   30.974; ZVAL   =    5.000    mass and valenz                                          
   RCORE  =    2.000    outmost cutoff radius                                                       
   RWIGS  =    1.900; RWIGS  =    1.005    wigner-seitz radius (au A)                               
   ENMAX  =  255.040; ENMIN  =  191.280 eV                                                          
   ICORE  =        3    local potential                                                             
   LCOR   =        T    correct aug charges                                                         
   LPAW   =        T    paw PP                                                                      
   EAUG   =  499.732                                                                                
   DEXC   =    0.000                                                                                
   RMAX   =    2.047    core radius for proj-oper                                                   
   RAUG   =    1.300    factor for augmentation sphere                                              
   RDEP   =    2.059    radius for radial grids                                                     
   RDEPT  =    1.900    core radius for aug-charge                                                  
                                                                                                    
   Atomic configuration                                                                             
    7 entries                                                                                       
     n  l   j            E        occ.                                                              
     1  0  0.50     -2084.0982   2.0000                                                             
     2  0  0.50      -173.9859   2.0000                                                             
     2  1  1.50      -124.4865   6.0000                                                             
     3  0  0.50       -13.9692   2.0000                                                             
     3  1  0.50        -5.5067   3.0000                                                             
     3  2  1.50        -6.8029   0.0000                                                             
     4  3  2.50        -1.3606   0.0000                                                             
   Description                                                                                      
     l       E           TYP  RCUT    TYP  RCUT                                                     
     0    -13.9691528     23  1.900                                                                 
     0    102.0436950     23  1.900                                                                 
     1     -5.5066939     23  1.900                                                                 
     1    102.0436950     23  1.900                                                                 
     2     -8.1634956     23  2.000                                                                 
     2     81.6349560     23  2.000                                                                 
     3     27.2116520     23  2.000                                                                 
  local pseudopotential read in
  partial core-charges read in
  partial kinetic energy density read in
  kinetic energy density of atom read in
  atomic valenz-charges read in
  non local Contribution for L=            0  read in
    real space projection operators read in
  non local Contribution for L=            0  read in
    real space projection operators read in
  non local Contribution for L=            1  read in
    real space projection operators read in
  non local Contribution for L=            1  read in
    real space projection operators read in
  non local Contribution for L=            2  read in
    real space projection operators read in
  non local Contribution for L=            2  read in
    real space projection operators read in
    PAW grid and wavefunctions read in
 
   number of l-projection  operators is LMAX  =            6
   number of lm-projection operators is LMMAX =           18
 
 POTCAR:    PAW_PBE Cl_GW 19Mar2012               
   VRHFIN =Cl: s2p5                                                                                 
   LEXCH  = PE                                                                                      
   EATOM  =   409.7259 eV,   30.1140 Ry                                                             
                                                                                                    
   TITEL  = PAW_PBE Cl_GW 19Mar2012                                                                 
   LULTRA =        F    use ultrasoft PP ?                                                          
   IUNSCR =        1    unscreen: 0-lin 1-nonlin 2-no                                               
   RPACOR =    1.400    partial core radius                                                         
   POMASS =   35.453; ZVAL   =    7.000    mass and valenz                                          
   RCORE  =    1.900    outmost cutoff radius                                                       
   RWIGS  =    1.900; RWIGS  =    1.005    wigner-seitz radius (au A)                               
   ENMAX  =  262.472; ENMIN  =  196.854 eV                                                          
   ICORE  =        3    local potential                                                             
   LCOR   =        T    correct aug charges                                                         
   LPAW   =        T    paw PP                                                                      
   EAUG   =  456.703                                                                                
   DEXC   =    0.000                                                                                
   RMAX   =    1.945    core radius for proj-oper                                                   
   RAUG   =    1.300    factor for augmentation sphere                                              
   RDEP   =    2.020    radius for radial grids                                                     
   RDEPT  =    1.900    core radius for aug-charge                                                  
                                                                                                    
   Atomic configuration                                                                             
    7 entries                                                                                       
     n  l   j            E        occ.                                                              
     1  0  0.50     -2751.1850   2.0000                                                             
     2  0  0.50      -252.6861   2.0000                                                             
     2  1  1.50      -191.6157   6.0000                                                             
     3  0  0.50       -20.6916   2.0000                                                             
     3  1  0.50        -8.5949   5.0000                                                             
     3  2  1.50        -9.5241   0.0000                                                             
     4  3  2.50        -9.5241   0.0000                                                             
   Description                                                                                      
     l       E           TYP  RCUT    TYP  RCUT                                                     
     0    -20.6915657     23  1.700                                                                 
     0     95.2407820     23  1.800                                                                 
     1     -8.5948577     23  1.900                                                                 
     1     95.2407820     23  1.900                                                                 
     2    -10.8846608     23  1.900                                                                 
     2     54.4233040     23  1.900                                                                 
     3     27.2116520     23  1.900                                                                 
  local pseudopotential read in
  partial core-charges read in
  partial kinetic energy density read in
  kinetic energy density of atom read in
  atomic valenz-charges read in
  non local Contribution for L=            0  read in
    real space projection operators read in
  non local Contribution for L=            0  read in
    real space projection operators read in
  non local Contribution for L=            1  read in
    real space projection operators read in
  non local Contribution for L=            1  read in
    real space projection operators read in
  non local Contribution for L=            2  read in
    real space projection operators read in
  non local Contribution for L=            2  read in
    real space projection operators read in
    PAW grid and wavefunctions read in
 
   number of l-projection  operators is LMAX  =            6
   number of lm-projection operators is LMMAX =           18
 
  PAW_PBE Zr_sv_GW 05Dec2013            :
 energy of atom  1       EATOM=-1282.4732
 kinetic energy error for atom=    0.0646 (will be added to EATOM!!)
  PAW_PBE P_GW 19Mar2012                :
 energy of atom  2       EATOM= -176.0430
 kinetic energy error for atom=    0.0019 (will be added to EATOM!!)
  PAW_PBE Cl_GW 19Mar2012               :
 energy of atom  3       EATOM= -409.7259
 kinetic energy error for atom=    0.0066 (will be added to EATOM!!)
 
 
 POSCAR: ZrPCl
  positions in direct lattice
  velocities in cartesian coordinates
 -----------------------------------------------------------------------------
|                                                                             |
|           W    W    AA    RRRRR   N    N  II  N    N   GGGG   !!!           |
|           W    W   A  A   R    R  NN   N  II  NN   N  G    G  !!!           |
|           W    W  A    A  R    R  N N  N  II  N N  N  G       !!!           |
|           W WW W  AAAAAA  RRRRR   N  N N  II  N  N N  G  GGG   !            |
|           WW  WW  A    A  R   R   N   NN  II  N   NN  G    G                |
|           W    W  A    A  R    R  N    N  II  N    N   GGGG   !!!           |
|                                                                             |
|     The default for ENCUTGWSOFT is different in this version of VASP.       |
|     If you wish to obtain identical results as using pre vasp.6.3           |
|     please manually set ENCUTGWSOFT =300 in the INCAR file.                 |
|                                                                             |
 -----------------------------------------------------------------------------

 exchange correlation table for  LEXCH =        8
   RHO(1)=    0.500       N(1)  =     2000
   RHO(2)=  100.500       N(2)  =     4000
 


--------------------------------------------------------------------------------------------------------


 ion  position               nearest neighbor table
   1  0.333  0.667  0.589-
   2  0.667  0.333  0.411-
   3  0.333  0.667  0.468-
   4  0.667  0.333  0.532-
   5  1.000  0.000  0.335-
   6  0.000  1.000  0.665-
 
  LATTYP: Found a hexagonal cell.
 ALAT       =     3.9006574991
 C/A-ratio  =     5.6045063365
  
  Lattice vectors:
  
 A1 = (   3.9006574991,   0.0000015394,  -0.0000004963)
 A2 = (  -1.9503274142,   3.3780690820,   0.0000004606)
 A3 = (  -0.0000028304,   0.0000014059,  21.8612596706)


Analysis of symmetry for initial positions (statically):
=====================================================================
 Subroutine PRICEL returns:
 Original cell was already a primitive cell.
 

 Routine SETGRP: Setting up the symmetry group for a 
 hexagonal supercell.


 Subroutine GETGRP returns: Found 12 space group operations
 (whereof 12 operations were pure point group operations)
 out of a pool of 24 trial point group operations.


The static configuration has the point symmetry D_3d.


Analysis of symmetry for dynamics (positions and initial velocities):
=====================================================================
 Subroutine PRICEL returns:
 Original cell was already a primitive cell.
 

 Routine SETGRP: Setting up the symmetry group for a 
 hexagonal supercell.


 Subroutine GETGRP returns: Found 12 space group operations
 (whereof 12 operations were pure point group operations)
 out of a pool of 24 trial point group operations.


The dynamic configuration has the point symmetry D_3d.


 Subroutine INISYM returns: Found 12 space group operations
 (whereof 12 operations are pure point group operations),
 and found     1 'primitive' translations


----------------------------------------------------------------------------------------

                                     Primitive cell                                     

  volume of cell :     288.0591

  direct lattice vectors                    reciprocal lattice vectors
     3.900657499  0.000001539 -0.000000496     0.256366977  0.148013416  0.000000024
    -1.950327414  3.378069082  0.000000461    -0.000000117  0.296027034 -0.000000019
    -0.000002830  0.000001406 21.861259671     0.000000006 -0.000000003  0.045743018

  length of vectors
     3.900657499  3.900657348 21.861259671     0.296027023  0.296027034  0.045743018

  position of ions in fractional coordinates (direct lattice)
     0.333333211  0.666666813  0.588751764
     0.666666788  0.333333183  0.411249315
     0.333333231  0.666666762  0.467820712
     0.666666764  0.333333236  0.532178391
     0.999999923  0.000000010  0.335110309
     0.000000083  0.999999994  0.664889509

  ion indices of the primitive-cell ions
   primitive index   ion index
                 1           1
                 2           2
                 3           3
                 4           4
                 5           5
                 6           6

----------------------------------------------------------------------------------------

 
 
 KPOINTS: K-Spacing Value to Generate K-Mesh: 0.02

Automatic generation of k-mesh.
 Grid dimensions read from file:
 generate k-points for:   12   12    1

 Generating k-lattice:

  Cartesian coordinates                     Fractional coordinates (reciprocal lattice)
     0.021363915  0.012334451  0.000000002     0.083333333  0.000000000  0.000000000
    -0.000000010  0.024668920 -0.000000002    -0.000000000  0.083333333 -0.000000000
     0.000000006 -0.000000003  0.045743018     0.000000000  0.000000000  1.000000000

  Length of vectors
     0.024668919  0.024668920  0.045743018

  Shift w.r.t. Gamma in fractional coordinates (k-lattice)
     0.000000000  0.000000000  0.000000000

 
 Subroutine IBZKPT returns following result:
 ===========================================
 
 Found     19 irreducible k-points:
 
 Following reciprocal coordinates:
            Coordinates               Weight
  0.000000  0.000000  0.000000      1.000000
  0.083333  0.000000  0.000000      6.000000
  0.166667  0.000000  0.000000      6.000000
  0.250000  0.000000  0.000000      6.000000
  0.333333  0.000000  0.000000      6.000000
  0.416667  0.000000  0.000000      6.000000
  0.500000  0.000000  0.000000      3.000000
  0.083333  0.083333  0.000000      6.000000
  0.166667  0.083333  0.000000     12.000000
  0.250000  0.083333  0.000000     12.000000
  0.333333  0.083333  0.000000     12.000000
  0.416667  0.083333  0.000000     12.000000
  0.166667  0.166667  0.000000      6.000000
  0.250000  0.166667  0.000000     12.000000
  0.333333  0.166667  0.000000     12.000000
  0.416667  0.166667  0.000000      6.000000
  0.250000  0.250000  0.000000      6.000000
  0.333333  0.250000  0.000000     12.000000
  0.333333  0.333333  0.000000      2.000000
 
 Following cartesian coordinates:
            Coordinates               Weight
  0.000000  0.000000  0.000000      1.000000
  0.021364  0.012334  0.000000      6.000000
  0.042728  0.024669  0.000000      6.000000
  0.064092  0.037003  0.000000      6.000000
  0.085456  0.049338  0.000000      6.000000
  0.106820  0.061672  0.000000      6.000000
  0.128183  0.074007  0.000000      3.000000
  0.021364  0.037003  0.000000      6.000000
  0.042728  0.049338  0.000000     12.000000
  0.064092  0.061672  0.000000     12.000000
  0.085456  0.074007  0.000000     12.000000
  0.106820  0.086341  0.000000     12.000000
  0.042728  0.074007  0.000000      6.000000
  0.064092  0.086341  0.000000     12.000000
  0.085456  0.098676  0.000000     12.000000
  0.106820  0.111010  0.000000      6.000000
  0.064092  0.111010  0.000000      6.000000
  0.085456  0.123345  0.000000     12.000000
  0.085456  0.148013  0.000000      2.000000
 
 
 Subroutine IBZKPT_HF returns following result:
 ==============================================
 
 Found    144 k-points in 1st BZ
 the following    144 k-points will be used (e.g. in the exchange kernel)
 Following reciprocal coordinates:   # in IRBZ
  0.000000  0.000000  0.000000    0.00694444   1 t-inv F
  0.083333  0.000000  0.000000    0.00694444   2 t-inv F
  0.166667  0.000000  0.000000    0.00694444   3 t-inv F
  0.250000  0.000000  0.000000    0.00694444   4 t-inv F
  0.333333  0.000000  0.000000    0.00694444   5 t-inv F
  0.416667  0.000000  0.000000    0.00694444   6 t-inv F
  0.500000  0.000000  0.000000    0.00694444   7 t-inv F
  0.083333  0.083333  0.000000    0.00694444   8 t-inv F
  0.166667  0.083333  0.000000    0.00694444   9 t-inv F
  0.250000  0.083333  0.000000    0.00694444  10 t-inv F
  0.333333  0.083333  0.000000    0.00694444  11 t-inv F
  0.416667  0.083333  0.000000    0.00694444  12 t-inv F
  0.166667  0.166667  0.000000    0.00694444  13 t-inv F
  0.250000  0.166667  0.000000    0.00694444  14 t-inv F
  0.333333  0.166667  0.000000    0.00694444  15 t-inv F
  0.416667  0.166667  0.000000    0.00694444  16 t-inv F
  0.250000  0.250000  0.000000    0.00694444  17 t-inv F
  0.333333  0.250000  0.000000    0.00694444  18 t-inv F
  0.333333  0.333333  0.000000    0.00694444  19 t-inv F
 -0.083333 -0.000000 -0.000000    0.00694444   2 t-inv F
 -0.083333  0.083333  0.000000    0.00694444   2 t-inv F
  0.083333 -0.083333 -0.000000    0.00694444   2 t-inv F
  0.000000 -0.083333  0.000000    0.00694444   2 t-inv F
 -0.000000  0.083333 -0.000000    0.00694444   2 t-inv F
 -0.166667 -0.000000 -0.000000    0.00694444   3 t-inv F
 -0.166667  0.166667  0.000000    0.00694444   3 t-inv F
  0.166667 -0.166667 -0.000000    0.00694444   3 t-inv F
  0.000000 -0.166667  0.000000    0.00694444   3 t-inv F
 -0.000000  0.166667 -0.000000    0.00694444   3 t-inv F
 -0.250000 -0.000000 -0.000000    0.00694444   4 t-inv F
 -0.250000  0.250000  0.000000    0.00694444   4 t-inv F
  0.250000 -0.250000 -0.000000    0.00694444   4 t-inv F
  0.000000 -0.250000  0.000000    0.00694444   4 t-inv F
 -0.000000  0.250000 -0.000000    0.00694444   4 t-inv F
 -0.333333 -0.000000 -0.000000    0.00694444   5 t-inv F
 -0.333333  0.333333  0.000000    0.00694444   5 t-inv F
  0.333333 -0.333333 -0.000000    0.00694444   5 t-inv F
  0.000000 -0.333333  0.000000    0.00694444   5 t-inv F
 -0.000000  0.333333 -0.000000    0.00694444   5 t-inv F
 -0.416667 -0.000000 -0.000000    0.00694444   6 t-inv F
 -0.416667  0.416667  0.000000    0.00694444   6 t-inv F
  0.416667 -0.416667 -0.000000    0.00694444   6 t-inv F
  0.000000 -0.416667  0.000000    0.00694444   6 t-inv F
 -0.000000  0.416667 -0.000000    0.00694444   6 t-inv F
 -0.500000  0.500000  0.000000    0.00694444   7 t-inv F
  0.000000 -0.500000  0.000000    0.00694444   7 t-inv F
 -0.083333 -0.083333 -0.000000    0.00694444   8 t-inv F
 -0.166667  0.083333  0.000000    0.00694444   8 t-inv F
  0.166667 -0.083333 -0.000000    0.00694444   8 t-inv F
  0.083333 -0.166667  0.000000    0.00694444   8 t-inv F
 -0.083333  0.166667 -0.000000    0.00694444   8 t-inv F
 -0.166667 -0.083333 -0.000000    0.00694444   9 t-inv F
 -0.250000  0.166667  0.000000    0.00694444   9 t-inv F
  0.250000 -0.166667 -0.000000    0.00694444   9 t-inv F
  0.083333 -0.250000  0.000000    0.00694444   9 t-inv F
 -0.083333  0.250000 -0.000000    0.00694444   9 t-inv F
  0.166667 -0.250000 -0.000000    0.00694444   9 t-inv F
 -0.166667  0.250000  0.000000    0.00694444   9 t-inv F
 -0.250000  0.083333 -0.000000    0.00694444   9 t-inv F
  0.250000 -0.083333  0.000000    0.00694444   9 t-inv F
  0.083333  0.166667 -0.000000    0.00694444   9 t-inv F
 -0.083333 -0.166667  0.000000    0.00694444   9 t-inv F
 -0.250000 -0.083333 -0.000000    0.00694444  10 t-inv F
 -0.333333  0.250000  0.000000    0.00694444  10 t-inv F
  0.333333 -0.250000 -0.000000    0.00694444  10 t-inv F
  0.083333 -0.333333  0.000000    0.00694444  10 t-inv F
 -0.083333  0.333333 -0.000000    0.00694444  10 t-inv F
  0.250000 -0.333333 -0.000000    0.00694444  10 t-inv F
 -0.250000  0.333333  0.000000    0.00694444  10 t-inv F
 -0.333333  0.083333 -0.000000    0.00694444  10 t-inv F
  0.333333 -0.083333  0.000000    0.00694444  10 t-inv F
  0.083333  0.250000 -0.000000    0.00694444  10 t-inv F
 -0.083333 -0.250000  0.000000    0.00694444  10 t-inv F
 -0.333333 -0.083333 -0.000000    0.00694444  11 t-inv F
 -0.416667  0.333333  0.000000    0.00694444  11 t-inv F
  0.416667 -0.333333 -0.000000    0.00694444  11 t-inv F
  0.083333 -0.416667  0.000000    0.00694444  11 t-inv F
 -0.083333  0.416667 -0.000000    0.00694444  11 t-inv F
  0.333333 -0.416667 -0.000000    0.00694444  11 t-inv F
 -0.333333  0.416667  0.000000    0.00694444  11 t-inv F
 -0.416667  0.083333 -0.000000    0.00694444  11 t-inv F
  0.416667 -0.083333  0.000000    0.00694444  11 t-inv F
  0.083333  0.333333 -0.000000    0.00694444  11 t-inv F
 -0.083333 -0.333333  0.000000    0.00694444  11 t-inv F
 -0.416667 -0.083333 -0.000000    0.00694444  12 t-inv F
 -0.500000  0.416667  0.000000    0.00694444  12 t-inv F
  0.500000 -0.416667 -0.000000    0.00694444  12 t-inv F
  0.083333 -0.500000  0.000000    0.00694444  12 t-inv F
 -0.083333  0.500000 -0.000000    0.00694444  12 t-inv F
  0.416667 -0.500000 -0.000000    0.00694444  12 t-inv F
 -0.416667  0.500000  0.000000    0.00694444  12 t-inv F
 -0.500000  0.083333 -0.000000    0.00694444  12 t-inv F
  0.500000 -0.083333  0.000000    0.00694444  12 t-inv F
  0.083333  0.416667 -0.000000    0.00694444  12 t-inv F
 -0.083333 -0.416667  0.000000    0.00694444  12 t-inv F
 -0.166667 -0.166667 -0.000000    0.00694444  13 t-inv F
 -0.333333  0.166667  0.000000    0.00694444  13 t-inv F
  0.333333 -0.166667 -0.000000    0.00694444  13 t-inv F
  0.166667 -0.333333  0.000000    0.00694444  13 t-inv F
 -0.166667  0.333333 -0.000000    0.00694444  13 t-inv F
 -0.250000 -0.166667 -0.000000    0.00694444  14 t-inv F
 -0.416667  0.250000  0.000000    0.00694444  14 t-inv F
  0.416667 -0.250000 -0.000000    0.00694444  14 t-inv F
  0.166667 -0.416667  0.000000    0.00694444  14 t-inv F
 -0.166667  0.416667 -0.000000    0.00694444  14 t-inv F
  0.250000 -0.416667 -0.000000    0.00694444  14 t-inv F
 -0.250000  0.416667  0.000000    0.00694444  14 t-inv F
 -0.416667  0.166667 -0.000000    0.00694444  14 t-inv F
  0.416667 -0.166667  0.000000    0.00694444  14 t-inv F
  0.166667  0.250000 -0.000000    0.00694444  14 t-inv F
 -0.166667 -0.250000  0.000000    0.00694444  14 t-inv F
 -0.333333 -0.166667 -0.000000    0.00694444  15 t-inv F
 -0.500000  0.333333  0.000000    0.00694444  15 t-inv F
  0.500000 -0.333333 -0.000000    0.00694444  15 t-inv F
  0.166667 -0.500000  0.000000    0.00694444  15 t-inv F
 -0.166667  0.500000 -0.000000    0.00694444  15 t-inv F
  0.333333 -0.500000 -0.000000    0.00694444  15 t-inv F
 -0.333333  0.500000  0.000000    0.00694444  15 t-inv F
 -0.500000  0.166667 -0.000000    0.00694444  15 t-inv F
  0.500000 -0.166667  0.000000    0.00694444  15 t-inv F
  0.166667  0.333333 -0.000000    0.00694444  15 t-inv F
 -0.166667 -0.333333  0.000000    0.00694444  15 t-inv F
 -0.416667 -0.166667 -0.000000    0.00694444  16 t-inv F
 -0.583333  0.416667  0.000000    0.00694444  16 t-inv F
  0.583333 -0.416667 -0.000000    0.00694444  16 t-inv F
  0.166667 -0.583333  0.000000    0.00694444  16 t-inv F
 -0.166667  0.583333 -0.000000    0.00694444  16 t-inv F
 -0.250000 -0.250000 -0.000000    0.00694444  17 t-inv F
 -0.500000  0.250000  0.000000    0.00694444  17 t-inv F
  0.500000 -0.250000 -0.000000    0.00694444  17 t-inv F
  0.250000 -0.500000  0.000000    0.00694444  17 t-inv F
 -0.250000  0.500000 -0.000000    0.00694444  17 t-inv F
 -0.333333 -0.250000 -0.000000    0.00694444  18 t-inv F
 -0.583333  0.333333  0.000000    0.00694444  18 t-inv F
  0.583333 -0.333333 -0.000000    0.00694444  18 t-inv F
  0.250000 -0.583333  0.000000    0.00694444  18 t-inv F
 -0.250000  0.583333 -0.000000    0.00694444  18 t-inv F
  0.333333 -0.583333 -0.000000    0.00694444  18 t-inv F
 -0.333333  0.583333  0.000000    0.00694444  18 t-inv F
 -0.583333  0.250000 -0.000000    0.00694444  18 t-inv F
  0.583333 -0.250000  0.000000    0.00694444  18 t-inv F
  0.250000  0.333333 -0.000000    0.00694444  18 t-inv F
 -0.250000 -0.333333  0.000000    0.00694444  18 t-inv F
 -0.333333 -0.333333 -0.000000    0.00694444  19 t-inv F


--------------------------------------------------------------------------------------------------------




 Dimension of arrays:
   k-points           NKPTS =     19   k-points in BZ     NKDIM =    144   number of bands    NBANDS=    256
   number of dos      NEDOS =    301   number of ions     NIONS =      6
   non local maximal  LDIM  =     10   non local SUM 2l+1 LMDIM =     40
   total plane-waves  NPLWV =  48000
   max r-space proj   IRMAX =      1   max aug-charges    IRDMAX=   7231
   dimension x,y,z NGX =    20 NGY =   20 NGZ =  120
   dimension x,y,z NGXF=    40 NGYF=   40 NGZF=  240
   support grid    NGXF=    40 NGYF=   40 NGZF=  240
   ions per type =               2   2   2
   NGX,Y,Z   is equivalent  to a cutoff of   8.52,  8.52,  9.13 a.u.
   NGXF,Y,Z  is equivalent  to a cutoff of  17.05, 17.05, 18.25 a.u.

 SYSTEM =  BSE                                     
 POSCAR =  ZrPCl                                   

 Startparameter for this run:
   NWRITE =      2    write-flag & timer
   PREC   = normal    normal or accurate (medium, high low for compatibility)
   ISTART =      1    job   : 0-new  1-cont  2-samecut
   ICHARG =      0    charge: 1-file 2-atom 10-const
   ISPIN  =      1    spin polarized calculation?
   LNONCOLLINEAR =      F non collinear calculations
   LSORBIT =      F    spin-orbit coupling
   INIWAV =      1    electr: 0-lowe 1-rand  2-diag
   LASPH  =      F    aspherical Exc in radial PAW
 Electronic Relaxation 1
   ENCUT  =  450.0 eV  33.07 Ry    5.75 a.u.   6.75  6.75 37.81*2*pi/ulx,y,z
   ENINI  =  450.0     initial cutoff
   ENAUG  =  997.7 eV  augmentation charge cutoff
   NELM   =      1;   NELMIN=  2; NELMDL=  0     # of ELM steps 
   EDIFF  = 0.1E-03   stopping-criterion for ELM
   LREAL  =      F    real-space projection
   NLSPLINE    = F    spline interpolate recip. space projectors
   LCOMPAT=      F    compatible to vasp.4.4
   GGA_COMPAT  = T    GGA compatible to vasp.4.4-vasp.4.6
   LMAXPAW     = -100 max onsite density
   LMAXMIX     =    2 max onsite mixed and CHGCAR
   VOSKOWN=      0    Vosko Wilk Nusair interpolation
   ROPT   =    0.00000   0.00000   0.00000
 Ionic relaxation
   EDIFFG = 0.1E-02   stopping-criterion for IOM
   NSW    =      0    number of steps for IOM
   NBLOCK =      1;   KBLOCK =      1    inner block; outer block 
   IBRION =     -1    ionic relax: 0-MD 1-quasi-New 2-CG
   NFREE  =      0    steps in history (QN), initial steepest desc. (CG)
   ISIF   =      0    stress and relaxation
   IWAVPR =     10    prediction:  0-non 1-charg 2-wave 3-comb
   ISYM   =      3    0-nonsym 1-usesym 2-fastsym
   LCORR  =      T    Harris-Foulkes like correction to forces

   POTIM  = 0.5000    time-step for ionic-motion
   TEIN   =    0.0    initial temperature
   TEBEG  =    0.0;   TEEND  =   0.0 temperature during run
   SMASS  =  -3.00    Nose mass-parameter (am)
   estimated Nose-frequenzy (Omega)   =  0.10E-29 period in steps = 0.13E+47 mass=  -0.348E-27a.u.
   SCALEE = 1.0000    scale energy and forces
   NPACO  =    256;   APACO  = 10.0  distance and # of slots for P.C.
   PSTRESS=    0.0 pullay stress

  Mass of Ions in am
   POMASS =  91.22 30.97 35.45
  Ionic Valenz
   ZVAL   =  12.00  5.00  7.00
  Atomic Wigner-Seitz radii
   RWIGS  =  -1.00 -1.00 -1.00
  virtual crystal weights 
   VCA    =   1.00  1.00  1.00
   NELECT =      48.0000    total number of electrons
   NUPDOWN=      -1.0000    fix difference up-down

 DOS related values:
   EMIN   =  10.00;   EMAX   =-10.00  energy-range for DOS
   EFERMI =   0.00;   METHOD = LEGACY      
   ISMEAR =     0;   SIGMA  =   0.05  broadening in eV -4-tet -1-fermi 0-gaus

 Electronic relaxation 2 (details)
   IALGO  =     38    algorithm
   LDIAG  =      T    sub-space diagonalisation (order eigenvalues)
   LSUBROT=      F    optimize rotation matrix (better conditioning)
   TURBO    =      0    0=normal 1=particle mesh
   IRESTART =      0    0=no restart 2=restart with 2 vectors
   NREBOOT  =      0    no. of reboots
   NMIN     =      0    reboot dimension
   EREF     =   0.00    reference energy to select bands
   IMIX   =      4    mixing-type and parameters
     AMIX     =   0.40;   BMIX     =  1.00
     AMIX_MAG =   1.60;   BMIX_MAG =  1.00
     AMIN     =   0.10
     WC   =   100.;   INIMIX=   1;  MIXPRE=   1;  MAXMIX= -45

 Intra band minimization:
   WEIMIN = 0.0000     energy-eigenvalue tresh-hold
   EBREAK =  0.98E-07  absolut break condition
   DEPER  =   0.30     relativ break condition  

   TIME   =   0.40     timestep for ELM

  volume/ion in A,a.u.               =      48.01       323.99
  Fermi-wavevector in a.u.,A,eV,Ry     =   0.900868  1.702394 11.041998  0.811564
  Thomas-Fermi vector in A             =   2.023879
 
 Write flags
   LWAVE        =      T    write WAVECAR
   LDOWNSAMPLE  =      F    k-point downsampling of WAVECAR
   LCHARG       =      T    write CHGCAR
   LVTOT        =      F    write LOCPOT, total local potential
   LVHAR        =      F    write LOCPOT, Hartree potential only
   LELF         =      F    write electronic localiz. function (ELF)
   LORBIT       =      0    0 simple, 1 ext, 2 COOP (PROOUT), +10 PAW based schemes


 Dipole corrections
   LMONO  =      F    monopole corrections only (constant potential shift)
   LDIPOL =      F    correct potential (dipole corrections)
   IDIPOL =      0    1-x, 2-y, 3-z, 4-all directions 
   EPSILON=  1.0000000 bulk dielectric constant

 Exchange correlation treatment:
   GGA     =    --    GGA type
   LEXCH   =     8    internal setting for exchange type
   LIBXC   =     F    Libxc                    
   VOSKOWN =     0    Vosko Wilk Nusair interpolation
   EXXOEP  =     0    0=HF, 1=EXX-LHF (local Hartree Fock) 2=EXX OEP
   LHFCALC =     T    Hartree Fock is set to
   LSYMGRAD=     F    symmetrize gradient (conserves proper symmetry)
   PRECFOCK=normal    Normal, Fast or Accurate (Low or Medium for compatibility)
   LRHFCALC=     F    long range Hartree Fock
   LRSCOR  =     F    long range correlation only (use DFT for short range part)
   LTHOMAS =     F    Thomas Fermi screening in HF
   LMODELHF=     F    short range full HF, long range fraction AEXX
   FOCKCORR=     2    mode to apply convergence corrections
   LFOCKACE=     T    use Adeptively-Compressed-Exchange operator
   ENCUT4O =  -1.0   cutoff for four orbital integrals eV
   LMAXFOCK=     4    L truncation for augmentation on plane wave grid
   LMAXFOCKAE=   4    L truncation for all-electron charge restoration on plane wave grid
   NMAXFOCKAE=   1    number of basis functions for all-electron charge restoration
   LFOCKAEDFT=     F  apply the AE augmentation even for DFT
   NKREDX  =     1    reduce k-point grid by
   NKREDY  =     1    reduce k-point grid by
   NKREDZ  =     1    reduce k-point grid by
   SHIFTRED=     F    shift reduced grid of Gamma
   HFKIDENT=     F    idential grid for each k-point
   ODDONLY =     F    use only odd q-grid points
   EVENONLY=     F    use only even q-grid points
   HFALPHA =   -1.0000 decay constant for conv. correction
   MCALPHA =    0.0000 extent of test-charge in conv. correction in multipole expansion
   AEXX    =    1.0000 exact exchange contribution
   HFSCREEN=    0.0000 screening length (either q_TF or 0.3 A-1)
   HFSCREENC=   0.0000 screening length for correlation (either q_TF or 0.3 A-1)
   HFRCUT  =    0.0000 spherical cutoff for potential kernel
   ALDAX   =    0.0000 LDA exchange part
   AGGAX   =    0.0000 GGA exchange part
   ALDAC   =    0.0000 LDA correlation
   AGGAC   =    0.0000 GGA correlation
   ENCUTFOCK=  -1.0 apply spherical cutoff to Coloumb kernel
   NBANDSGWLOW=     1    first orbital included in HF term
   NBLOCK_FOCK=    64    blocking factor in FOCK_ACC

 Linear response parameters
   LEPSILON=     F    determine dielectric tensor
   LRPA    =     F    only Hartree local field effects (RPA)
   LNABLA  =     F    use nabla operator in PAW spheres
   LVEL    =     F    velocity operator in full k-point grid
   CSHIFT  =0.1000    complex shift for real part using Kramers Kronig
   OMEGAMAX=  -1.0    maximum frequency
   DEG_THRESHOLD= 0.2000000E-02 threshold for treating states as degnerate
   RTIME   =   -0.100 relaxation time in fs
  (WPLASMAI=    0.000 imaginary part of plasma frequency in eV, 0.658/RTIME)
   DFIELD  = 0.0000000 0.0000000 0.0000000 field for delta impulse in time
 
  Optional k-point grid parameters
   LKPOINTS_OPT  =     F    use optional k-point grid
   KPOINTS_OPT_MODE=     1    mode for optional k-point grid
 
 Orbital magnetization related:
   ORBITALMAG=     F  switch on orbital magnetization
   LCHIMAG   =     F  perturbation theory with respect to B field
   DQ        =  0.001000  dq finite difference perturbation B field
   LLRAUG    =     F  two centre corrections for induced B field
   LBONE     =     F  B-component reconstruction in AE one-centre
   LVGVCALC  =     T  calculate vGv susceptibility
   LVGVAPPL  =     F  apply vGv susceptibility instead of pGv for G=0

 Response functions by sum over occupied states:
   ALGO                =  EVGW0   selected many-body perturbation algorithm
   LALL_IN_ONE         =     F    all in one mode selected?
   IALL_IN_ONE         =    -1    all in one mode id
   NBANDS_WAVE         =    -1    number of bands written to file
   LFINITE_TEMPERATURE =     F    use finite temperature formalism
   LFXC                =     F    include DFT xc kernel in TD-HF and W
   LADDER              =     F    particle hole ladder diagrams for BSE/TD-HF and W (Nano-quanta)
   LRPAFORCE           =     F    calculate RPA forces
   LHARTREE            =     T    include Hartree terms (bubbles-RPA) in BSE/TD-HF
   IBSE                =     0    BSE modus: 0 exact, 1 time-evolution (store matrix), 10 time-evolution (implicit)
   KPOINT              =    -1   0   0   0    k-point index at which BSE equation is solved (and G at which response is eval.)
   LTRIPLET            =     F    triplet instead of singlet excitation (BSE only)
   LRSRPA              =     F    range separated RPA (total - short) in ACFDT
   LTCTC               =     F    use test-charge test-charge for self-energy (with ALGO=QPBSE)
   LTCTE               =     F    use test-charge test-electron dielectric function
   LTETE               =     F    use test-electron test-electron dielectric function
   LFXCEPS             =     F    determine f_xc=epsilon-1/Xi Sharma and Gross kernel
   LFXHEG              =     F    model exchange using f_x(G,k_F) from free electron gas
   NATURALO            =     2    0 natural orbitals, 1 only virtual, 2 only occupied-virtual rotation
   LHOLEGF             =     F    use holes in self-consistent GW 
   L2ORDER             =     F    2nd order terms only
   LDMP1               =     F    first order term in ACFDT routine is calculated
   LMP2LT              =     F    use LT MP2
   LSMP2LT             =     F    use stochastic LT MP2
   LGWLF               =     F    use W potentials for exchange like diagrams
   ENCUTGW             = 300.0    cutoff for response function in eV
   ENCUTGWSOFT         = 240.0    soft cutoff for Coulomb kernel in GW response function in eV
   ENCUTLF             =  -1.0    cutoff for local field effects
   LESF_SPLINES        =     F    tricubic splines for electronic structure factor S(q+G)
   LMAXMP2             =    -1    maximum L for one center terms
   SCISSOR             =   0.0    scissor correction
   NOMEGA              =    96    number of frequencies
   NOMEGAR             =    96    number of frequencies along real axis
   NBANDSGW            =    -1    number of bands for which selfenergy shift is calculated
   NBANDSGWLOW         =     1    lowest band included in GW (to exclude core correlation)
   NBANDSO             =    -1    number of bands for electron-hole treatment (occupied)
   NBANDSV             =    -1    number of bands for electron-hole treatment (virtual)
   NELMGW              =     1    number of iterations in solving QP/BSE equation
   NELMHF              =     1    number of iterations in the inner HF iteration
   DIM                 =     3    dimensionality of system (0=0D molecules, 3=3D)
   IEPSILON            =     4    cartesion direction for which dielectric function is calculated (4=all)
   ANTIRES             =     0    antiresonant part (0) no TDA (1) w=0 exact (2) accurate
   OMEGAMAX            = -30.0    maximum frequency
   OMEGAMIN            = -30.0    minimum frequency
   OMEGATL             =-200.0    maximum frequency of tail
   OMEGAGRID           =     0    grid type (0 default)
   CSHIFT              =  -0.1    complex shift used in evaluation of response functions
   LSELFENERGY         =     F    calculate selfenergy instead of QP shifts
   LSPECTRAL           =     T    use spectral functions                   
   LSPECTRALGW         =     F    use spectral functions to calculate int dz G(w-z) W(z) (more accurate)
   LSINGLES            =     F    calculate the singles contribution to the correlation energy
   LFERMIGW            =     F    update Fermi-energy in the Greens function

   ODDONLYGW           =     F    avoid all even points for polarizability 
   EVENONLYGW          =     F    avoid all odd  points for polarizability 
   NKREDLFX            =     1    NKREDLFY  =   1   NKREDLFZ  =   1

   TELESCOPE           =     0    use telescope k-point sampling
   NTAUPAR             =    -1    number of TAU groups used in imaginary time calculation
   NOMEGAPAR           =    -1    number of OMEGA groups used in imaginary frequency calculation
   DAMP_NEWTON         =0.8000    damping for Newton step for position update when RPA forces are used

 Random number generation:
   RANDOM_GENERATOR = DEFAULT
   PCG_SEED         = not used


--------------------------------------------------------------------------------------------------------


 Static calculation
 charge density and potential will be updated during run
 non-spin polarized calculation
 Variant of blocked Davidson
 Davidson routine will perform the subspace rotation
 perform sub-space diagonalisation
    after iterative eigenvector-optimisation
 modified Broyden-mixing scheme, WC =      100.0
 initial mixing is a Kerker type mixing with AMIX =  0.4000 and BMIX =      1.0000
 Hartree-type preconditioning will be used
 using additional bands           232
 reciprocal scheme for non local part
 use partial core corrections
 calculate Harris-corrections to forces 
   (improved forces if not selfconsistent)
 use gradient corrections 
 use of overlap-Matrix (Vanderbilt PP)
 Gauss-broadening in eV      SIGMA  =   0.05


--------------------------------------------------------------------------------------------------------


  energy-cutoff  :      450.00
  volume of cell :      288.06
      direct lattice vectors                 reciprocal lattice vectors
     3.900657499  0.000001539 -0.000000496     0.256366977  0.148013416  0.000000024
    -1.950327414  3.378069082  0.000000461    -0.000000117  0.296027034 -0.000000019
    -0.000002830  0.000001406 21.861259671     0.000000006 -0.000000003  0.045743018

  length of vectors
     3.900657499  3.900657348 21.861259671     0.296027023  0.296027034  0.045743018


 
 old parameters found on file WAVECAR:
  energy-cutoff  :      450.00
  volume of cell :      288.06
      direct lattice vectors                 reciprocal lattice vectors
     3.900657499  0.000001539 -0.000000496     0.256366977  0.148013416  0.000000024
    -1.950327414  3.378069082  0.000000461    -0.000000117  0.296027034 -0.000000019
    -0.000002830  0.000001406 21.861259671     0.000000006 -0.000000003  0.045743018

  length of vectors

 
 k-points in units of 2pi/SCALE and weight: K-Spacing Value to Generate K-Mesh: 0.02
   0.00000000  0.00000000  0.00000000       0.007
   0.02136391  0.01233445  0.00000000       0.042
   0.04272783  0.02466890  0.00000000       0.042
   0.06409174  0.03700335  0.00000001       0.042
   0.08545566  0.04933781  0.00000001       0.042
   0.10681957  0.06167226  0.00000001       0.042
   0.12818349  0.07400671  0.00000001       0.021
   0.02136391  0.03700337  0.00000000       0.042
   0.04272782  0.04933782  0.00000000       0.083
   0.06409173  0.06167227  0.00000000       0.083
   0.08545565  0.07400672  0.00000001       0.083
   0.10681956  0.08634118  0.00000001       0.083
   0.04272781  0.07400674  0.00000000       0.042
   0.06409172  0.08634119  0.00000000       0.083
   0.08545564  0.09867564  0.00000000       0.083
   0.10681955  0.11101010  0.00000001       0.042
   0.06409172  0.11101011  0.00000000       0.042
   0.08545563  0.12334456  0.00000000       0.083
   0.08545562  0.14801348  0.00000000       0.014
 
 k-points in reciprocal lattice and weights: K-Spacing Value to Generate K-Mesh: 0.02
   0.00000000  0.00000000  0.00000000       0.007
   0.08333333  0.00000000  0.00000000       0.042
   0.16666667  0.00000000  0.00000000       0.042
   0.25000000  0.00000000  0.00000000       0.042
   0.33333333  0.00000000  0.00000000       0.042
   0.41666667  0.00000000  0.00000000       0.042
   0.50000000  0.00000000  0.00000000       0.021
   0.08333333  0.08333333  0.00000000       0.042
   0.16666667  0.08333333  0.00000000       0.083
   0.25000000  0.08333333  0.00000000       0.083
   0.33333333  0.08333333  0.00000000       0.083
   0.41666667  0.08333333  0.00000000       0.083
   0.16666667  0.16666667  0.00000000       0.042
   0.25000000  0.16666667  0.00000000       0.083
   0.33333333  0.16666667  0.00000000       0.083
   0.41666667  0.16666667  0.00000000       0.042
   0.25000000  0.25000000  0.00000000       0.042
   0.33333333  0.25000000  0.00000000       0.083
   0.33333333  0.33333333  0.00000000       0.014
 
 position of ions in fractional coordinates (direct lattice) 
   0.33333321  0.66666681  0.58875176
   0.66666679  0.33333318  0.41124931
   0.33333323  0.66666676  0.46782071
   0.66666676  0.33333324  0.53217839
   0.99999992  0.00000001  0.33511031
   0.00000008  0.99999999  0.66488951
 
 position of ions in cartesian coordinates  (Angst):
  -0.00000154  2.25204789 12.87085533
   1.95032880  1.12602412  8.99042788
  -0.00000102  2.25204755 10.22715021
   1.95032826  1.12602447 11.63408982
   3.90065623  0.00000205  7.32593299
  -1.95032896  3.37807000 14.53532267
 


--------------------------------------------------------------------------------------------------------


 k-point   1 :   0.0000 0.0000 0.0000  plane waves:    6279
 k-point   2 :   0.0833 0.0000 0.0000  plane waves:    6265
 k-point   3 :   0.1667 0.0000 0.0000  plane waves:    6272
 k-point   4 :   0.2500 0.0000 0.0000  plane waves:    6236
 k-point   5 :   0.3333 0.0000 0.0000  plane waves:    6238
 k-point   6 :   0.4167 0.0000 0.0000  plane waves:    6246
 k-point   7 :   0.5000 0.0000 0.0000  plane waves:    6254
 k-point   8 :   0.0833 0.0833 0.0000  plane waves:    6247
 k-point   9 :   0.1667 0.0833 0.0000  plane waves:    6243
 k-point  10 :   0.2500 0.0833 0.0000  plane waves:    6241
 k-point  11 :   0.3333 0.0833 0.0000  plane waves:    6236
 k-point  12 :   0.4167 0.0833 0.0000  plane waves:    6256
 k-point  13 :   0.1667 0.1667 0.0000  plane waves:    6241
 k-point  14 :   0.2500 0.1667 0.0000  plane waves:    6230
 k-point  15 :   0.3333 0.1667 0.0000  plane waves:    6236
 k-point  16 :   0.4167 0.1667 0.0000  plane waves:    6244
 k-point  17 :   0.2500 0.2500 0.0000  plane waves:    6233
 k-point  18 :   0.3333 0.2500 0.0000  plane waves:    6244
 k-point  19 :   0.3333 0.3333 0.0000  plane waves:    6261

 maximum and minimum number of plane-waves per node :      6279     6230

 maximum number of plane-waves:      6279
 maximum index in each direction: 
   IXMAX=    6   IYMAX=    6   IZMAX=   37
   IXMIN=   -7   IYMIN=   -7   IZMIN=  -37


 serial   3D FFT for wavefunctions
 parallel 3D FFT for charge:
    minimum data exchange during FFTs selected (reduces bandwidth)

 
 Radii for the augmentation spheres in the non-local exchange
 for species   1 augmentation radius   0.878 (default was   0.878)
 error exchange integrals (PW-AE in eV) (mean, max) 0.030 0.808 density error[0,qmax] 0.0043
 for species   2 augmentation radius   1.022 (default was   1.022)
 error exchange integrals (PW-AE in eV) (mean, max) 0.547 4.450 density error[0,qmax] 0.0152
 for species   3 augmentation radius   1.069 (default was   1.069)
 error exchange integrals (PW-AE in eV) (mean, max) 0.845 7.617 density error[0,qmax] 0.0432
 Maximum index for augmentation-charges in exchange           858
  SETUP_FOCK is finished

 total amount of memory used by VASP MPI-rank0   286137. kBytes
=======================================================================

   base      :      30000. kBytes
   nonl-proj :     115150. kBytes
   fftplans  :       3435. kBytes
   grid      :       8108. kBytes
   one-center:        460. kBytes
   HF        :       1920. kBytes
   nonlr-proj:       1924. kBytes
   wavefun   :     125140. kBytes
 
     INWAV:  cpu time      0.1133: real time      0.1134
 Broyden mixing: mesh for mixing (old mesh)
   NGX = 13   NGY = 13   NGZ = 75
  (NGX  = 40   NGY  = 40   NGZ  =240)
  gives a total of  12675 points

 charge density for first step will be calculated from the start-wavefunctions


--------------------------------------------------------------------------------------------------------


 Maximum index for augmentation-charges          1708 (set IRDMAX)


--------------------------------------------------------------------------------------------------------


 initial charge from wavefunction
    FEWALD:  cpu time      0.0001: real time      0.0001
 available memory per node:    3.01 GB, setting MAXMEM to    3086

 The Fermi energy was updated, please check that it is located mid-gap
 values below the HOMO (VB) or above the LUMO (CB) will cause erroneous energies
 E-fermi :   0.3863

 Response functions by sum over occupied states:
 ===============================================
   NOMEGA  =    96    number of frequencies
   NOMEGAR =    96    number of frequencies along real axis
   OMEGAMAX=  37.96   maximum frequency
   OMEGAMIN=   0.26   minimum frequency
   OMEGATL = 107.09   maximum frequency of tail
   CSHIFT  =  0.514   complex shift used in evaluation of response functions


 Energies iw= 
 ============
    0.000    0.000    0.351    0.000    0.701    0.000    1.051    0.000
    1.400    0.000    1.747    0.000    2.093    0.000    2.437    0.000
    2.779    0.000    3.119    0.000    3.456    0.000    3.791    0.000
    4.123    0.000    4.452    0.000    4.778    0.000    5.102    0.000
    5.422    0.000    5.740    0.000    6.055    0.000    6.367    0.000
    6.677    0.000    6.983    0.000    7.288    0.000    7.590    0.000
    7.890    0.000    8.189    0.000    8.485    0.000    8.780    0.000
    9.074    0.000    9.366    0.000    9.658    0.000    9.949    0.000
   10.240    0.000   10.531    0.000   10.821    0.000   11.113    0.000
   11.404    0.000   11.697    0.000   11.992    0.000   12.288    0.000
   12.586    0.000   12.886    0.000   13.189    0.000   13.495    0.000
   13.805    0.000   14.118    0.000   14.436    0.000   14.758    0.000
   15.086    0.000   15.420    0.000   15.760    0.000   16.108    0.000
   16.463    0.000   16.826    0.000   17.198    0.000   17.581    0.000
   17.974    0.000   18.379    0.000   18.796    0.000   19.227    0.000
   19.674    0.000   20.137    0.000   20.618    0.000   21.118    0.000
   21.640    0.000   22.184    0.000   22.755    0.000   23.353    0.000
   23.983    0.000   24.646    0.000   25.346    0.000   26.088    0.000
   26.875    0.000   27.714    0.000   28.609    0.000   29.568    0.000
   30.598    0.000   31.708    0.000   32.909    0.000   34.213    0.000
   35.636    0.000   37.193    0.000   38.908    0.000   40.804    0.000
   42.914    0.000   45.275    0.000   47.936    0.000   50.959    0.000
   54.421    0.000   58.426    0.000   63.112    0.000   68.665    0.000
   75.350    0.000   83.546    0.000   93.826    0.000  107.090    0.000
 

IMPORTANT INFORMATION: All symmetrisations will be switched off!
NOSYMM: (Re-)initialisation of all symmetry stuff for point group C_1.

 
 KPOINTS: K-Spacing Value to Generate K-Mesh: 0.02

Automatic generation of k-mesh.
 Grid dimensions read from file:
 generate k-points for:   12   12    1

 Generating k-lattice:

  Cartesian coordinates                     Fractional coordinates (reciprocal lattice)
     0.021363915  0.012334451  0.000000002     0.083333333  0.000000000  0.000000000
    -0.000000010  0.024668920 -0.000000002    -0.000000000  0.083333333 -0.000000000
     0.000000006 -0.000000003  0.045743018     0.000000000  0.000000000  1.000000000

  Length of vectors
     0.024668919  0.024668920  0.045743018

  Shift w.r.t. Gamma in fractional coordinates (k-lattice)
     0.000000000  0.000000000  0.000000000

 
 Subroutine IBZKPT returns following result:
 ===========================================
 
 Found    144 irreducible k-points:
 
 Following reciprocal coordinates:
            Coordinates               Weight
  0.000000  0.000000  0.000000      1.000000
  0.083333  0.000000  0.000000      1.000000
 -0.083333  0.000000  0.000000      1.000000
  0.000000  0.083333  0.000000      1.000000
  0.000000 -0.083333  0.000000      1.000000
 -0.083333  0.083333  0.000000      1.000000
  0.083333 -0.083333  0.000000      1.000000
  0.166667  0.000000  0.000000      1.000000
 -0.166667  0.000000  0.000000      1.000000
  0.000000  0.166667  0.000000      1.000000
  0.000000 -0.166667  0.000000      1.000000
 -0.166667  0.166667  0.000000      1.000000
  0.166667 -0.166667  0.000000      1.000000
  0.250000  0.000000  0.000000      1.000000
 -0.250000  0.000000  0.000000      1.000000
  0.000000  0.250000  0.000000      1.000000
  0.000000 -0.250000  0.000000      1.000000
 -0.250000  0.250000  0.000000      1.000000
  0.250000 -0.250000  0.000000      1.000000
  0.333333  0.000000  0.000000      1.000000
 -0.333333  0.000000  0.000000      1.000000
  0.000000  0.333333  0.000000      1.000000
  0.000000 -0.333333  0.000000      1.000000
 -0.333333  0.333333  0.000000      1.000000
  0.333333 -0.333333  0.000000      1.000000
  0.416667  0.000000  0.000000      1.000000
 -0.416667  0.000000  0.000000      1.000000
  0.000000  0.416667  0.000000      1.000000
  0.000000 -0.416667  0.000000      1.000000
 -0.416667  0.416667  0.000000      1.000000
  0.416667 -0.416667  0.000000      1.000000
  0.500000  0.000000  0.000000      1.000000
  0.000000  0.500000  0.000000      1.000000
  0.500000  0.500000  0.000000      1.000000
  0.083333  0.083333  0.000000      1.000000
 -0.083333 -0.083333  0.000000      1.000000
 -0.083333  0.166667  0.000000      1.000000
  0.083333 -0.166667  0.000000      1.000000
 -0.166667  0.083333  0.000000      1.000000
  0.166667 -0.083333  0.000000      1.000000
  0.166667  0.083333  0.000000      1.000000
 -0.166667 -0.083333  0.000000      1.000000
 -0.083333  0.250000  0.000000      1.000000
  0.083333 -0.250000  0.000000      1.000000
 -0.250000  0.166667  0.000000      1.000000
  0.250000 -0.166667  0.000000      1.000000
 -0.166667  0.250000  0.000000      1.000000
  0.166667 -0.250000  0.000000      1.000000
  0.083333  0.166667  0.000000      1.000000
 -0.083333 -0.166667  0.000000      1.000000
  0.250000 -0.083333  0.000000      1.000000
 -0.250000  0.083333  0.000000      1.000000
  0.250000  0.083333  0.000000      1.000000
 -0.250000 -0.083333  0.000000      1.000000
 -0.083333  0.333333  0.000000      1.000000
  0.083333 -0.333333  0.000000      1.000000
 -0.333333  0.250000  0.000000      1.000000
  0.333333 -0.250000  0.000000      1.000000
 -0.250000  0.333333  0.000000      1.000000
  0.250000 -0.333333  0.000000      1.000000
  0.083333  0.250000  0.000000      1.000000
 -0.083333 -0.250000  0.000000      1.000000
  0.333333 -0.083333  0.000000      1.000000
 -0.333333  0.083333  0.000000      1.000000
  0.333333  0.083333  0.000000      1.000000
 -0.333333 -0.083333  0.000000      1.000000
 -0.083333  0.416667  0.000000      1.000000
  0.083333 -0.416667  0.000000      1.000000
 -0.416667  0.333333  0.000000      1.000000
  0.416667 -0.333333  0.000000      1.000000
 -0.333333  0.416667  0.000000      1.000000
  0.333333 -0.416667  0.000000      1.000000
  0.083333  0.333333  0.000000      1.000000
 -0.083333 -0.333333  0.000000      1.000000
  0.416667 -0.083333  0.000000      1.000000
 -0.416667  0.083333  0.000000      1.000000
  0.416667  0.083333  0.000000      1.000000
 -0.416667 -0.083333  0.000000      1.000000
 -0.083333  0.500000  0.000000      1.000000
  0.083333  0.500000  0.000000      1.000000
  0.500000  0.416667  0.000000      1.000000
  0.500000 -0.416667  0.000000      1.000000
 -0.416667  0.500000  0.000000      1.000000
  0.416667  0.500000  0.000000      1.000000
  0.083333  0.416667  0.000000      1.000000
 -0.083333 -0.416667  0.000000      1.000000
  0.500000 -0.083333  0.000000      1.000000
  0.500000  0.083333  0.000000      1.000000
  0.166667  0.166667  0.000000      1.000000
 -0.166667 -0.166667  0.000000      1.000000
 -0.166667  0.333333  0.000000      1.000000
  0.166667 -0.333333  0.000000      1.000000
 -0.333333  0.166667  0.000000      1.000000
  0.333333 -0.166667  0.000000      1.000000
  0.250000  0.166667  0.000000      1.000000
 -0.250000 -0.166667  0.000000      1.000000
 -0.166667  0.416667  0.000000      1.000000
  0.166667 -0.416667  0.000000      1.000000
 -0.416667  0.250000  0.000000      1.000000
  0.416667 -0.250000  0.000000      1.000000
 -0.250000  0.416667  0.000000      1.000000
  0.250000 -0.416667  0.000000      1.000000
  0.166667  0.250000  0.000000      1.000000
 -0.166667 -0.250000  0.000000      1.000000
  0.416667 -0.166667  0.000000      1.000000
 -0.416667  0.166667  0.000000      1.000000
  0.333333  0.166667  0.000000      1.000000
 -0.333333 -0.166667  0.000000      1.000000
 -0.166667  0.500000  0.000000      1.000000
  0.166667  0.500000  0.000000      1.000000
  0.500000  0.333333  0.000000      1.000000
  0.500000 -0.333333  0.000000      1.000000
 -0.333333  0.500000  0.000000      1.000000
  0.333333  0.500000  0.000000      1.000000
  0.166667  0.333333  0.000000      1.000000
 -0.166667 -0.333333  0.000000      1.000000
  0.500000 -0.166667  0.000000      1.000000
  0.500000  0.166667  0.000000      1.000000
  0.416667  0.166667  0.000000      1.000000
 -0.416667 -0.166667  0.000000      1.000000
 -0.166667 -0.416667  0.000000      1.000000
  0.166667  0.416667  0.000000      1.000000
  0.416667  0.416667  0.000000      1.000000
 -0.416667 -0.416667  0.000000      1.000000
  0.250000  0.250000  0.000000      1.000000
 -0.250000 -0.250000  0.000000      1.000000
 -0.250000  0.500000  0.000000      1.000000
  0.250000  0.500000  0.000000      1.000000
  0.500000  0.250000  0.000000      1.000000
  0.500000 -0.250000  0.000000      1.000000
  0.333333  0.250000  0.000000      1.000000
 -0.333333 -0.250000  0.000000      1.000000
 -0.250000 -0.416667  0.000000      1.000000
  0.250000  0.416667  0.000000      1.000000
  0.416667  0.333333  0.000000      1.000000
 -0.416667 -0.333333  0.000000      1.000000
 -0.333333 -0.416667  0.000000      1.000000
  0.333333  0.416667  0.000000      1.000000
  0.250000  0.333333  0.000000      1.000000
 -0.250000 -0.333333  0.000000      1.000000
 -0.416667 -0.250000  0.000000      1.000000
  0.416667  0.250000  0.000000      1.000000
  0.333333  0.333333  0.000000      1.000000
 -0.333333 -0.333333  0.000000      1.000000
 
 Following cartesian coordinates:
            Coordinates               Weight
  0.000000  0.000000  0.000000      1.000000
  0.021364  0.012334  0.000000      1.000000
 -0.021364 -0.012334 -0.000000      1.000000
 -0.000000  0.024669 -0.000000      1.000000
  0.000000 -0.024669  0.000000      1.000000
 -0.021364  0.012334 -0.000000      1.000000
  0.021364 -0.012334  0.000000      1.000000
  0.042728  0.024669  0.000000      1.000000
 -0.042728 -0.024669 -0.000000      1.000000
 -0.000000  0.049338 -0.000000      1.000000
  0.000000 -0.049338  0.000000      1.000000
 -0.042728  0.024669 -0.000000      1.000000
  0.042728 -0.024669  0.000000      1.000000
  0.064092  0.037003  0.000000      1.000000
 -0.064092 -0.037003 -0.000000      1.000000
 -0.000000  0.074007 -0.000000      1.000000
  0.000000 -0.074007  0.000000      1.000000
 -0.064092  0.037003 -0.000000      1.000000
  0.064092 -0.037003  0.000000      1.000000
  0.085456  0.049338  0.000000      1.000000
 -0.085456 -0.049338 -0.000000      1.000000
 -0.000000  0.098676 -0.000000      1.000000
  0.000000 -0.098676  0.000000      1.000000
 -0.085456  0.049338 -0.000000      1.000000
  0.085456 -0.049338  0.000000      1.000000
  0.106820  0.061672  0.000000      1.000000
 -0.106820 -0.061672 -0.000000      1.000000
 -0.000000  0.123345 -0.000000      1.000000
  0.000000 -0.123345  0.000000      1.000000
 -0.106820  0.061672 -0.000000      1.000000
  0.106820 -0.061672  0.000000      1.000000
  0.128183  0.074007  0.000000      1.000000
 -0.000000  0.148014 -0.000000      1.000000
  0.128183  0.222020  0.000000      1.000000
  0.021364  0.037003  0.000000      1.000000
 -0.021364 -0.037003 -0.000000      1.000000
 -0.021364  0.037003 -0.000000      1.000000
  0.021364 -0.037003  0.000000      1.000000
 -0.042728  0.000000 -0.000000      1.000000
  0.042728 -0.000000  0.000000      1.000000
  0.042728  0.049338  0.000000      1.000000
 -0.042728 -0.049338 -0.000000      1.000000
 -0.021364  0.061672 -0.000000      1.000000
  0.021364 -0.061672  0.000000      1.000000
 -0.064092  0.012334 -0.000000      1.000000
  0.064092 -0.012334  0.000000      1.000000
 -0.042728  0.049338 -0.000000      1.000000
  0.042728 -0.049338  0.000000      1.000000
  0.021364  0.061672 -0.000000      1.000000
 -0.021364 -0.061672  0.000000      1.000000
  0.064092  0.012334  0.000000      1.000000
 -0.064092 -0.012334 -0.000000      1.000000
  0.064092  0.061672  0.000000      1.000000
 -0.064092 -0.061672 -0.000000      1.000000
 -0.021364  0.086341 -0.000000      1.000000
  0.021364 -0.086341  0.000000      1.000000
 -0.085456  0.024669 -0.000000      1.000000
  0.085456 -0.024669  0.000000      1.000000
 -0.064092  0.061672 -0.000000      1.000000
  0.064092 -0.061672  0.000000      1.000000
  0.021364  0.086341 -0.000000      1.000000
 -0.021364 -0.086341  0.000000      1.000000
  0.085456  0.024669  0.000000      1.000000
 -0.085456 -0.024669 -0.000000      1.000000
  0.085456  0.074007  0.000000      1.000000
 -0.085456 -0.074007 -0.000000      1.000000
 -0.021364  0.111010 -0.000000      1.000000
  0.021364 -0.111010  0.000000      1.000000
 -0.106820  0.037003 -0.000000      1.000000
  0.106820 -0.037003  0.000000      1.000000
 -0.085456  0.074007 -0.000000      1.000000
  0.085456 -0.074007  0.000000      1.000000
  0.021364  0.111010 -0.000000      1.000000
 -0.021364 -0.111010  0.000000      1.000000
  0.106820  0.037003  0.000000      1.000000
 -0.106820 -0.037003 -0.000000      1.000000
  0.106820  0.086341  0.000000      1.000000
 -0.106820 -0.086341 -0.000000      1.000000
 -0.021364  0.135679 -0.000000      1.000000
  0.021364  0.160348 -0.000000      1.000000
  0.128183  0.197351  0.000000      1.000000
  0.128184 -0.049338  0.000000      1.000000
 -0.106820  0.086341 -0.000000      1.000000
  0.106820  0.209686  0.000000      1.000000
  0.021364  0.135679 -0.000000      1.000000
 -0.021364 -0.135679  0.000000      1.000000
  0.128183  0.049338  0.000000      1.000000
  0.128183  0.098676  0.000000      1.000000
  0.042728  0.074007  0.000000      1.000000
 -0.042728 -0.074007 -0.000000      1.000000
 -0.042728  0.074007 -0.000000      1.000000
  0.042728 -0.074007  0.000000      1.000000
 -0.085456  0.000000 -0.000000      1.000000
  0.085456 -0.000000  0.000000      1.000000
  0.064092  0.086341  0.000000      1.000000
 -0.064092 -0.086341 -0.000000      1.000000
 -0.042728  0.098676 -0.000000      1.000000
  0.042728 -0.098676  0.000000      1.000000
 -0.106820  0.012335 -0.000000      1.000000
  0.106820 -0.012335  0.000000      1.000000
 -0.064092  0.086341 -0.000000      1.000000
  0.064092 -0.086341  0.000000      1.000000
  0.042728  0.098676 -0.000000      1.000000
 -0.042728 -0.098676  0.000000      1.000000
  0.106820  0.012334  0.000000      1.000000
 -0.106820 -0.012334 -0.000000      1.000000
  0.085456  0.098676  0.000000      1.000000
 -0.085456 -0.098676 -0.000000      1.000000
 -0.042728  0.123345 -0.000000      1.000000
  0.042728  0.172682 -0.000000      1.000000
  0.128183  0.172682  0.000000      1.000000
  0.128184 -0.024669  0.000000      1.000000
 -0.085456  0.098676 -0.000000      1.000000
  0.085456  0.197351 -0.000000      1.000000
  0.042728  0.123345 -0.000000      1.000000
 -0.042728 -0.123345  0.000000      1.000000
  0.128184  0.024669  0.000000      1.000000
  0.128183  0.123345  0.000000      1.000000
  0.106820  0.111010  0.000000      1.000000
 -0.106820 -0.111010 -0.000000      1.000000
 -0.042728 -0.148014  0.000000      1.000000
  0.042728  0.148014 -0.000000      1.000000
  0.106820  0.185017  0.000000      1.000000
 -0.106820 -0.185017 -0.000000      1.000000
  0.064092  0.111010  0.000000      1.000000
 -0.064092 -0.111010 -0.000000      1.000000
 -0.064092  0.111010 -0.000000      1.000000
  0.064092  0.185017 -0.000000      1.000000
  0.128183  0.148013  0.000000      1.000000
  0.128184 -0.000000  0.000000      1.000000
  0.085456  0.123345  0.000000      1.000000
 -0.085456 -0.123345 -0.000000      1.000000
 -0.064092 -0.160348  0.000000      1.000000
  0.064092  0.160348 -0.000000      1.000000
  0.106820  0.160348  0.000000      1.000000
 -0.106820 -0.160348 -0.000000      1.000000
 -0.085456 -0.172682  0.000000      1.000000
  0.085456  0.172682 -0.000000      1.000000
  0.064092  0.135679 -0.000000      1.000000
 -0.064092 -0.135679  0.000000      1.000000
 -0.106820 -0.135679 -0.000000      1.000000
  0.106820  0.135679  0.000000      1.000000
  0.085456  0.148013  0.000000      1.000000
 -0.085456 -0.148013 -0.000000      1.000000
 
 files read and symmetry switched off, memory is now:
 total amount of memory used by VASP MPI-rank0  1946640. kBytes
=======================================================================

   base      :      30000. kBytes
   nonl-proj :     868750. kBytes
   fftplans  :       3435. kBytes
   grid      :       8108. kBytes
   one-center:        460. kBytes
   HF        :       1920. kBytes
   nonlr-proj:       1924. kBytes
   wavefun   :     948436. kBytes
   fock_wrk  :      83607. kBytes
 
 Basis sets for responsefunctions:
 =================================
 k-point   1 :   0.0000 0.0000 0.0000  plane waves:    3469
 k-point   2 :   0.0833 0.0000 0.0000  plane waves:    3453
 k-point   3 :   0.1667 0.0000 0.0000  plane waves:    3445
 k-point   4 :   0.2500 0.0000 0.0000  plane waves:    3412
 k-point   5 :   0.3333 0.0000 0.0000  plane waves:    3392
 k-point   6 :   0.4167 0.0000 0.0000  plane waves:    3372
 k-point   7 :   0.5000 0.0000 0.0000  plane waves:    3332
 k-point   8 :   0.0833 0.0833 0.0000  plane waves:    3447
 k-point   9 :   0.1667 0.0833 0.0000  plane waves:    3416
 k-point  10 :   0.2500 0.0833 0.0000  plane waves:    3403
 k-point  11 :   0.3333 0.0833 0.0000  plane waves:    3376
 k-point  12 :   0.4167 0.0833 0.0000  plane waves:    3365
 k-point  13 :   0.1667 0.1667 0.0000  plane waves:    3411
 k-point  14 :   0.2500 0.1667 0.0000  plane waves:    3407
 k-point  15 :   0.3333 0.1667 0.0000  plane waves:    3374
 k-point  16 :   0.4167 0.1667 0.0000  plane waves:    3382
 k-point  17 :   0.2500 0.2500 0.0000  plane waves:    3380
 k-point  18 :   0.3333 0.2500 0.0000  plane waves:    3392
 k-point  19 :   0.3333 0.3333 0.0000  plane waves:    3402
 k-point  20 :  -0.0833-0.0000-0.0000  plane waves:    3453
 k-point  21 :  -0.0000 0.0833-0.0000  plane waves:    3453
 k-point  22 :   0.0000-0.0833 0.0000  plane waves:    3453
 k-point  23 :  -0.0833 0.0833 0.0000  plane waves:    3453
 k-point  24 :   0.0833-0.0833-0.0000  plane waves:    3453
 k-point  25 :  -0.1667-0.0000-0.0000  plane waves:    3445
 k-point  26 :  -0.0000 0.1667-0.0000  plane waves:    3445
 k-point  27 :   0.0000-0.1667 0.0000  plane waves:    3445
 k-point  28 :  -0.1667 0.1667 0.0000  plane waves:    3445
 k-point  29 :   0.1667-0.1667-0.0000  plane waves:    3445
 k-point  30 :  -0.2500-0.0000-0.0000  plane waves:    3412
 k-point  31 :  -0.0000 0.2500-0.0000  plane waves:    3412
 k-point  32 :   0.0000-0.2500 0.0000  plane waves:    3412
 k-point  33 :  -0.2500 0.2500 0.0000  plane waves:    3412
 k-point  34 :   0.2500-0.2500-0.0000  plane waves:    3412
 k-point  35 :  -0.3333-0.0000-0.0000  plane waves:    3392
 k-point  36 :  -0.0000 0.3333-0.0000  plane waves:    3392
 k-point  37 :   0.0000-0.3333 0.0000  plane waves:    3392
 k-point  38 :  -0.3333 0.3333 0.0000  plane waves:    3392
 k-point  39 :   0.3333-0.3333-0.0000  plane waves:    3392
 k-point  40 :  -0.4167-0.0000-0.0000  plane waves:    3372
 k-point  41 :  -0.0000 0.4167-0.0000  plane waves:    3372
 k-point  42 :   0.0000-0.4167 0.0000  plane waves:    3372
 k-point  43 :  -0.4167 0.4167 0.0000  plane waves:    3372
 k-point  44 :   0.4167-0.4167-0.0000  plane waves:    3372
 k-point  45 :   0.0000-0.5000 0.0000  plane waves:    3332
 k-point  46 :  -0.5000 0.5000 0.0000  plane waves:    3332
 k-point  47 :  -0.0833-0.0833-0.0000  plane waves:    3447
 k-point  48 :  -0.0833 0.1667-0.0000  plane waves:    3447
 k-point  49 :   0.0833-0.1667 0.0000  plane waves:    3447
 k-point  50 :  -0.1667 0.0833 0.0000  plane waves:    3447
 k-point  51 :   0.1667-0.0833-0.0000  plane waves:    3447
 k-point  52 :  -0.1667-0.0833-0.0000  plane waves:    3416
 k-point  53 :  -0.0833 0.2500-0.0000  plane waves:    3416
 k-point  54 :   0.0833-0.2500 0.0000  plane waves:    3416
 k-point  55 :  -0.2500 0.1667 0.0000  plane waves:    3416
 k-point  56 :   0.2500-0.1667-0.0000  plane waves:    3416
 k-point  57 :  -0.1667 0.2500 0.0000  plane waves:    3416
 k-point  58 :   0.1667-0.2500-0.0000  plane waves:    3416
 k-point  59 :   0.0833 0.1667-0.0000  plane waves:    3416
 k-point  60 :  -0.0833-0.1667 0.0000  plane waves:    3416
 k-point  61 :   0.2500-0.0833 0.0000  plane waves:    3416
 k-point  62 :  -0.2500 0.0833-0.0000  plane waves:    3416
 k-point  63 :  -0.2500-0.0833-0.0000  plane waves:    3403
 k-point  64 :  -0.0833 0.3333-0.0000  plane waves:    3403
 k-point  65 :   0.0833-0.3333 0.0000  plane waves:    3403
 k-point  66 :  -0.3333 0.2500 0.0000  plane waves:    3403
 k-point  67 :   0.3333-0.2500-0.0000  plane waves:    3403
 k-point  68 :  -0.2500 0.3333 0.0000  plane waves:    3403
 k-point  69 :   0.2500-0.3333-0.0000  plane waves:    3403
 k-point  70 :   0.0833 0.2500-0.0000  plane waves:    3403
 k-point  71 :  -0.0833-0.2500 0.0000  plane waves:    3403
 k-point  72 :   0.3333-0.0833 0.0000  plane waves:    3403
 k-point  73 :  -0.3333 0.0833-0.0000  plane waves:    3403
 k-point  74 :  -0.3333-0.0833-0.0000  plane waves:    3376
 k-point  75 :  -0.0833 0.4167-0.0000  plane waves:    3376
 k-point  76 :   0.0833-0.4167 0.0000  plane waves:    3376
 k-point  77 :  -0.4167 0.3333 0.0000  plane waves:    3376
 k-point  78 :   0.4167-0.3333-0.0000  plane waves:    3376
 k-point  79 :  -0.3333 0.4167 0.0000  plane waves:    3376
 k-point  80 :   0.3333-0.4167-0.0000  plane waves:    3376
 k-point  81 :   0.0833 0.3333-0.0000  plane waves:    3376
 k-point  82 :  -0.0833-0.3333 0.0000  plane waves:    3376
 k-point  83 :   0.4167-0.0833 0.0000  plane waves:    3376
 k-point  84 :  -0.4167 0.0833-0.0000  plane waves:    3376
 k-point  85 :  -0.4167-0.0833-0.0000  plane waves:    3365
 k-point  86 :  -0.0833 0.5000-0.0000  plane waves:    3365
 k-point  87 :   0.0833-0.5000 0.0000  plane waves:    3365
 k-point  88 :  -0.5000 0.4167 0.0000  plane waves:    3365
 k-point  89 :   0.5000-0.4167-0.0000  plane waves:    3365
 k-point  90 :  -0.4167 0.5000 0.0000  plane waves:    3365
 k-point  91 :   0.4167-0.5000-0.0000  plane waves:    3365
 k-point  92 :   0.0833 0.4167-0.0000  plane waves:    3365
 k-point  93 :  -0.0833-0.4167 0.0000  plane waves:    3365
 k-point  94 :   0.5000-0.0833 0.0000  plane waves:    3365
 k-point  95 :  -0.5000 0.0833-0.0000  plane waves:    3365
 k-point  96 :  -0.1667-0.1667-0.0000  plane waves:    3411
 k-point  97 :  -0.1667 0.3333-0.0000  plane waves:    3411
 k-point  98 :   0.1667-0.3333 0.0000  plane waves:    3411
 k-point  99 :  -0.3333 0.1667 0.0000  plane waves:    3411
 k-point 100 :   0.3333-0.1667-0.0000  plane waves:    3411
 k-point 101 :  -0.2500-0.1667-0.0000  plane waves:    3407
 k-point 102 :  -0.1667 0.4167-0.0000  plane waves:    3407
 k-point 103 :   0.1667-0.4167 0.0000  plane waves:    3407
 k-point 104 :  -0.4167 0.2500 0.0000  plane waves:    3407
 k-point 105 :   0.4167-0.2500-0.0000  plane waves:    3407
 k-point 106 :  -0.2500 0.4167 0.0000  plane waves:    3407
 k-point 107 :   0.2500-0.4167-0.0000  plane waves:    3407
 k-point 108 :   0.1667 0.2500-0.0000  plane waves:    3407
 k-point 109 :  -0.1667-0.2500 0.0000  plane waves:    3407
 k-point 110 :   0.4167-0.1667 0.0000  plane waves:    3407
 k-point 111 :  -0.4167 0.1667-0.0000  plane waves:    3407
 k-point 112 :  -0.3333-0.1667-0.0000  plane waves:    3374
 k-point 113 :  -0.1667 0.5000-0.0000  plane waves:    3374
 k-point 114 :   0.1667-0.5000 0.0000  plane waves:    3374
 k-point 115 :  -0.5000 0.3333 0.0000  plane waves:    3374
 k-point 116 :   0.5000-0.3333-0.0000  plane waves:    3374
 k-point 117 :  -0.3333 0.5000 0.0000  plane waves:    3374
 k-point 118 :   0.3333-0.5000-0.0000  plane waves:    3374
 k-point 119 :   0.1667 0.3333-0.0000  plane waves:    3374
 k-point 120 :  -0.1667-0.3333 0.0000  plane waves:    3374
 k-point 121 :   0.5000-0.1667 0.0000  plane waves:    3374
 k-point 122 :  -0.5000 0.1667-0.0000  plane waves:    3374
 k-point 123 :  -0.4167-0.1667-0.0000  plane waves:    3382
 k-point 124 :  -0.1667 0.5833-0.0000  plane waves:    3382
 k-point 125 :   0.1667-0.5833 0.0000  plane waves:    3382
 k-point 126 :  -0.5833 0.4167 0.0000  plane waves:    3382
 k-point 127 :   0.5833-0.4167-0.0000  plane waves:    3382
 k-point 128 :  -0.2500-0.2500-0.0000  plane waves:    3380
 k-point 129 :  -0.2500 0.5000-0.0000  plane waves:    3380
[...]
     47       9.2320       9.9124      -8.0117      -8.8929      -3.9826       0.7722       0.0000      -0.4331
     48       9.3700       9.5117      -3.9866      -4.1542      -1.7084       0.8454       0.0000      -0.2218

 k-point  17 :       0.2500    0.2500    0.0000
  band No.  KS-energies  QP-energies   sigma(KS)   V_xc(KS)     V^pw_x(r,r')   Z            occupation Imag(sigma)

      1     -49.2105     -49.2902     -20.8676     -20.7163     -34.2707       0.5270       2.0000       1.3192
      2     -49.2105     -49.2902     -20.8676     -20.7163     -34.2707       0.5270       2.0000       1.3192
      3     -27.3500     -27.5379     -19.6491     -19.3206     -27.5819       0.5722       2.0000       0.7792
      4     -27.3500     -27.5379     -19.6491     -19.3206     -27.5819       0.5722       2.0000       0.7792
      5     -27.2982     -27.4906     -19.7213     -19.3851     -27.5994       0.5723       2.0000       0.7197
      6     -27.2905     -27.4930     -19.7518     -19.3971     -27.5911       0.5707       2.0000       0.6835
      7     -27.2801     -27.4865     -19.7679     -19.4084     -27.6493       0.5742       2.0000       0.7243
      8     -27.2701     -27.4801     -19.7859     -19.4222     -27.6718       0.5777       2.0000       0.7222
      9     -15.9801     -16.2336     -15.8732     -15.4455     -24.4769       0.5926       2.0000       1.1863
     10     -15.9801     -16.2336     -15.8732     -15.4455     -24.4769       0.5926       2.0000       1.1863
     11     -10.7946     -10.9746     -12.8109     -12.5395     -19.0316       0.6629       2.0000       1.0528
     12      -9.3570      -9.5647     -13.0423     -12.7335     -18.6259       0.6722       2.0000       0.8909
     13      -5.3979      -6.0261     -13.5431     -12.6311     -17.1129       0.6889       2.0000       0.3507
     14      -5.1412      -5.8353     -14.0383     -13.0257     -17.4999       0.6855       2.0000       0.2838
     15      -4.9326      -5.1963     -12.1354     -11.7600     -15.5189       0.7025       2.0000       0.4399
     16      -4.6638      -5.3071     -14.4175     -13.4798     -17.8170       0.6861       2.0000       0.2616
     17      -4.5869      -5.2706     -14.5760     -13.5831     -17.9438       0.6886       2.0000       0.2398
     18      -4.5451      -5.2140     -14.6256     -13.6474     -18.0482       0.6838       2.0000       0.2461
     19      -4.4468      -5.0160     -14.4457     -13.6129     -17.8440       0.6835       2.0000       0.2744
     20      -3.5013      -3.6136     -12.8948     -12.7361     -15.6816       0.7078       2.0000       0.3230
     21      -3.4343      -3.7227     -13.3951     -12.9884     -16.3176       0.7093       2.0000       0.2772
     22      -1.1746      -1.1333     -12.5289     -12.5873     -13.8191       0.7056       2.0000       0.1548
     23      -0.3173      -0.2548     -12.7134     -12.8008     -13.3610       0.7155       2.0000       0.0926
     24       0.0038       0.1568     -13.1780     -13.3926     -13.6624       0.7131       2.0000       0.0765
     25       1.1972       1.8994     -12.4606     -13.4603      -8.7737       0.7024       0.0000      -0.1746
     26       1.2422       1.9833     -12.7091     -13.7658      -9.0267       0.7014       0.0000      -0.1783
     27       2.1719       2.9590     -13.1753     -14.3318      -8.5720       0.6806       0.0000      -0.2751
     28       2.1719       2.9590     -13.1753     -14.3318      -8.5720       0.6806       0.0000      -0.2751
     29       3.1981       3.9939     -12.9713     -14.1115      -8.3436       0.6979       0.0000      -0.3148
     30       3.5245       4.2911     -12.3055     -13.3939      -7.3816       0.7043       0.0000      -0.3754
     31       3.7612       4.5279     -12.2844     -13.3582      -7.7397       0.7139       0.0000      -0.3287
     32       3.8958       4.7841     -13.2446     -14.5059      -8.5886       0.7043       0.0000      -0.3398
     33       4.4669       5.2554     -12.4146     -13.5310      -7.7063       0.7062       0.0000      -0.3915
     34       4.9878       5.7622     -11.9876     -13.0563      -7.2262       0.7246       0.0000      -0.4491
     35       6.3589       6.7462      -6.4014      -6.8877      -3.0762       0.7963       0.0000      -0.2547
     36       6.5289       7.1948      -8.5815      -9.4527      -4.5274       0.7644       0.0000      -0.3259
     37       6.6453       7.2340      -8.5240      -9.2846      -4.5700       0.7740       0.0000      -0.3560
     38       6.7546       7.1623      -6.3145      -6.8270      -3.1222       0.7955       0.0000      -0.2703
     39       7.3812       7.9870      -9.0199      -9.8129      -4.9193       0.7638       0.0000      -0.3346
     40       7.6926       7.5437      -2.6670      -2.4969      -1.0645       0.8751       0.0000      -0.1217
     41       7.9134       8.4928      -7.3644      -8.1122      -3.6187       0.7748       0.0000      -0.3081
     42       7.9764       8.7038      -9.1816     -10.1334      -4.7361       0.7643       0.0000      -0.5000
     43       8.2280       8.7285      -7.5007      -8.1374      -3.7113       0.7861       0.0000      -0.4247
     44       8.6296       9.3428      -9.7024     -10.6517      -5.0417       0.7513       0.0000      -0.4872
     45       8.7961       9.3435      -7.5339      -8.2305      -3.6975       0.7858       0.0000      -0.4369
     46       8.9614       9.3055      -4.7574      -5.1769      -2.1042       0.8203       0.0000      -0.2354
     47       9.3203       9.6927      -5.4505      -5.9075      -2.4964       0.8149       0.0000      -0.3018
     48       9.5145      10.1271      -7.7143      -8.4989      -3.6295       0.7808       0.0000      -0.4788

 k-point  18 :       0.3333    0.2500    0.0000
  band No.  KS-energies  QP-energies   sigma(KS)   V_xc(KS)     V^pw_x(r,r')   Z            occupation Imag(sigma)

      1     -49.2098     -49.2896     -20.8682     -20.7172     -34.2706       0.5286       2.0000       1.3194
      2     -49.2098     -49.2896     -20.8682     -20.7172     -34.2706       0.5286       2.0000       1.3194
      3     -27.3512     -27.5402     -19.6501     -19.3197     -27.5827       0.5721       2.0000       0.7813
      4     -27.3512     -27.5402     -19.6501     -19.3197     -27.5827       0.5721       2.0000       0.7813
      5     -27.3102     -27.5099     -19.7202     -19.3711     -27.5876       0.5719       2.0000       0.7192
      6     -27.3055     -27.5060     -19.7295     -19.3779     -27.5955       0.5705       2.0000       0.7026
      7     -27.2765     -27.4818     -19.7694     -19.4130     -27.6655       0.5759       2.0000       0.7315
      8     -27.2705     -27.4795     -19.7835     -19.4215     -27.6703       0.5774       2.0000       0.7234
      9     -15.9618     -16.2151     -15.8934     -15.4669     -24.4908       0.5939       2.0000       1.1809
     10     -15.9618     -16.2151     -15.8934     -15.4669     -24.4908       0.5939       2.0000       1.1809
     11     -10.4234     -10.6075     -12.8885     -12.6123     -18.9502       0.6666       2.0000       1.0063
     12      -9.7024      -9.9001     -12.9917     -12.6971     -18.7322       0.6711       2.0000       0.9254
     13      -5.3819      -5.9893     -13.4011     -12.5230     -16.9621       0.6917       2.0000       0.3610
     14      -5.1571      -5.8251     -13.9013     -12.9278     -17.3721       0.6861       2.0000       0.2977
     15      -5.0826      -5.4292     -12.4665     -11.9714     -15.9044       0.7001       2.0000       0.4180
     16      -4.7767      -5.4498     -14.3064     -13.3287     -17.7182       0.6885       2.0000       0.2653
     17      -4.7291      -5.3945     -14.3095     -13.3430     -17.6990       0.6885       2.0000       0.2601
     18      -4.4657      -5.1263     -14.6954     -13.7291     -18.1310       0.6836       2.0000       0.2475
     19      -4.4247      -5.0294     -14.6630     -13.7783     -18.0739       0.6835       2.0000       0.2594
     20      -3.5322      -3.6791     -12.9992     -12.7913     -15.8587       0.7062       2.0000       0.3179
     21      -3.4928      -3.7327     -13.1713     -12.8328     -16.0850       0.7088       2.0000       0.2933
     22      -1.1874      -1.1649     -12.5034     -12.5354     -13.8767       0.7048       2.0000       0.1579
     23      -0.0812       0.0299     -12.7679     -12.9228     -13.1919       0.7168       2.0000       0.0778
     24       0.0761       0.2062     -12.8971     -13.0789     -13.2548       0.7155       2.0000       0.0704
     25       1.3296       2.0176     -12.4065     -13.3862      -8.6626       0.7022       0.0000      -0.1818
     26       1.4302       2.1781     -12.7489     -13.8216      -8.8346       0.6972       0.0000      -0.1970
     27       1.8024       2.5787     -13.0337     -14.1609      -8.8642       0.6887       0.0000      -0.2253
     28       1.9754       2.7628     -13.1633     -14.3118      -8.8925       0.6856       0.0000      -0.2398
     29       3.3597       4.1879     -13.0065     -14.1936      -8.3227       0.6977       0.0000      -0.3245
     30       3.7005       4.5733     -13.2061     -14.4577      -8.3937       0.6973       0.0000      -0.3533
     31       3.9320       4.8075     -13.4173     -14.6735      -8.2701       0.6970       0.0000      -0.4315
     32       4.1558       4.9298     -12.5696     -13.6546      -7.7376       0.7134       0.0000      -0.4117
     33       4.5138       5.2983     -12.5256     -13.6290      -7.7234       0.7110       0.0000      -0.4255
     34       4.7351       5.4985     -12.0210     -13.0824      -7.2488       0.7193       0.0000      -0.4290
     35       6.3783       7.0931      -9.5968     -10.5462      -5.1738       0.7528       0.0000      -0.3506
     36       6.8592       7.5414      -9.0602      -9.9529      -4.8819       0.7641       0.0000      -0.3629
     37       6.9903       7.6533      -8.9335      -9.8021      -4.7248       0.7634       0.0000      -0.3601
     38       7.2655       7.7233      -6.5936      -7.1728      -3.2487       0.7905       0.0000      -0.2737
     39       7.2801       7.7004      -6.3685      -6.8993      -3.0818       0.7918       0.0000      -0.2736
     40       7.7254       8.3123      -7.7222      -8.4773      -3.8296       0.7773       0.0000      -0.3809
     41       7.8480       8.3869      -7.1911      -7.8829      -3.5236       0.7789       0.0000      -0.3220
     42       8.3871       8.4274      -3.4070      -3.4541      -1.3890       0.8529       0.0000      -0.1693
     43       8.4060       8.8953      -6.8582      -7.4786      -3.3288       0.7887       0.0000      -0.3458
     44       8.4780       8.9432      -7.5462      -8.1329      -3.6756       0.7928       0.0000      -0.4129
     45       8.8550       9.4685      -8.1859      -8.9816      -4.0746       0.7711       0.0000      -0.4616
     46       8.9947       9.4295      -5.9579      -6.4984      -2.7994       0.8042       0.0000      -0.3237
     47       9.2375       9.5070      -5.1534      -5.4800      -2.3139       0.8251       0.0000      -0.3001
     48       9.6002       9.8755      -4.9206      -5.2539      -2.1501       0.8260       0.0000      -0.2692

 k-point  19 :       0.3333    0.3333    0.0000
  band No.  KS-energies  QP-energies   sigma(KS)   V_xc(KS)     V^pw_x(r,r')   Z            occupation Imag(sigma)

      1     -49.2095     -49.2893     -20.8684     -20.7176     -34.2705       0.5289       2.0000       1.3195
      2     -49.2095     -49.2893     -20.8684     -20.7176     -34.2705       0.5289       2.0000       1.3195
      3     -27.3380     -27.5255     -19.6642     -19.3379     -27.5783       0.5743       2.0000       0.7780
      4     -27.3380     -27.5255     -19.6642     -19.3379     -27.5783       0.5743       2.0000       0.7780
      5     -27.3299     -27.5332     -19.7011     -19.3447     -27.5894       0.5705       2.0000       0.7303
      6     -27.3235     -27.5255     -19.7093     -19.3539     -27.6024       0.5683       2.0000       0.7105
      7     -27.2728     -27.4798     -19.7777     -19.4184     -27.6694       0.5761       2.0000       0.7273
      8     -27.2728     -27.4798     -19.7777     -19.4184     -27.6694       0.5761       2.0000       0.7273
      9     -15.9551     -16.2082     -15.9011     -15.4750     -24.4960       0.5941       2.0000       1.1788
     10     -15.9551     -16.2082     -15.9011     -15.4750     -24.4960       0.5941       2.0000       1.1788
     11     -10.0544     -10.2439     -12.9483     -12.6651     -18.8485       0.6691       2.0000       0.9636
     12     -10.0544     -10.2439     -12.9483     -12.6651     -18.8485       0.6691       2.0000       0.9636
     13      -5.1875      -5.3915     -11.7814     -11.4921     -15.2709       0.7053       2.0000       0.4891
     14      -5.1360      -5.8180     -13.9249     -12.9334     -17.3661       0.6878       2.0000       0.2893
     15      -5.1360      -5.8180     -13.9249     -12.9334     -17.3661       0.6878       2.0000       0.2893
     16      -4.9403      -5.6311     -14.2443     -13.2362     -17.7212       0.6853       2.0000       0.2786
     17      -4.9403      -5.6311     -14.2443     -13.2362     -17.7212       0.6853       2.0000       0.2786
     18      -4.4353      -5.1000     -14.7656     -13.7939     -18.1934       0.6841       2.0000       0.2429
     19      -4.4119      -5.0416     -14.7734     -13.8525     -18.1874       0.6839       2.0000       0.2496
     20      -3.5195      -3.7103     -13.0863     -12.8164     -15.9840       0.7071       2.0000       0.3066
     21      -3.5195      -3.7103     -13.0863     -12.8164     -15.9840       0.7071       2.0000       0.3066
     22      -1.1779      -1.1593     -12.5129     -12.5393     -13.9322       0.7057       2.0000       0.1589
     23       0.1298       0.2496     -12.7159     -12.8830     -12.9733       0.7166       2.0000       0.0659
     24       0.1298       0.2496     -12.7159     -12.8830     -12.9733       0.7166       2.0000       0.0659
     25       1.3805       2.1127     -12.7432     -13.7768      -9.2513       0.7084       0.0000      -0.1608
     26       1.4834       2.2173     -12.6539     -13.7173      -8.4819       0.6901       0.0000      -0.2179
     27       1.4834       2.2173     -12.6539     -13.7173      -8.4819       0.6901       0.0000      -0.2179
     28       1.8337       2.6437     -13.3789     -14.5491      -9.4858       0.6921       0.0000      -0.2068
     29       3.5882       4.4759     -13.3054     -14.5798      -8.6297       0.6966       0.0000      -0.3239
     30       3.5882       4.4759     -13.3054     -14.5798      -8.6297       0.6966       0.0000      -0.3239
     31       3.9470       4.7931     -13.2272     -14.4433      -7.9122       0.6957       0.0000      -0.4653
     32       4.4888       5.2494     -12.6780     -13.7462      -7.5172       0.7120       0.0000      -0.5055
     33       4.6460       5.4334     -12.5285     -13.6290      -7.6727       0.7155       0.0000      -0.4470
     34       4.6460       5.4334     -12.5285     -13.6290      -7.6727       0.7155       0.0000      -0.4470
     35       6.7877       7.5790     -10.1133     -11.1753      -5.4541       0.7451       0.0000      -0.3842
     36       6.7877       7.5790     -10.1133     -11.1753      -5.4541       0.7451       0.0000      -0.3842
     37       6.8746       7.5761     -10.2533     -11.1757      -5.8361       0.7605       0.0000      -0.3897
     38       7.4736       7.9506      -6.2652      -6.8707      -2.9222       0.7878       0.0000      -0.2694
     39       7.4736       7.9506      -6.2652      -6.8707      -2.9222       0.7878       0.0000      -0.2694
     40       7.6688       8.1109      -6.0653      -6.6229      -2.7993       0.7929       0.0000      -0.2747
     41       7.6688       8.1109      -6.0653      -6.6229      -2.7993       0.7929       0.0000      -0.2747
     42       8.2123       8.7584      -8.6976      -9.4002      -4.2082       0.7772       0.0000      -0.4799
     43       8.6590       8.9639      -3.7236      -4.0891      -1.4208       0.8342       0.0000      -0.1952
     44       8.7464       9.3701      -8.1142      -8.9236      -4.0351       0.7706       0.0000      -0.4352
     45       8.7464       9.3701      -8.1142      -8.9236      -4.0351       0.7706       0.0000      -0.4352
     46       8.9593       9.0278      -3.8808      -3.9617      -1.5655       0.8469       0.0000      -0.2273
     47       9.4109       9.2476      -2.8472      -2.6607      -1.1317       0.8756       0.0000      -0.1727
     48       9.4109       9.2476      -2.8472      -2.6607      -1.1317       0.8756       0.0000      -0.1727


--------------------------------------------------------------------------------------------------------


  QP_SHIFT:  cpu time      1.0433: real time      2.2073
    GWLOOP:  cpu time  33908.9074: real time  33962.8565
  LATTYP: Found a hexagonal cell.
 ALAT       =     3.9006574991
 C/A-ratio  =     5.6045063365
  
  Lattice vectors:
  
 A1 = (   3.9006574991,   0.0000015394,  -0.0000004963)
 A2 = (  -1.9503274142,   3.3780690820,   0.0000004606)
 A3 = (  -0.0000028304,   0.0000014059,  21.8612596706)


Analysis of symmetry for initial positions (statically):
=====================================================================
 Subroutine PRICEL returns:
 Original cell was already a primitive cell.
 

 Routine SETGRP: Setting up the symmetry group for a 
 hexagonal supercell.


 Subroutine GETGRP returns: Found 12 space group operations
 (whereof 12 operations were pure point group operations)
 out of a pool of 24 trial point group operations.


The static configuration has the point symmetry D_3d.


Analysis of symmetry for dynamics (positions and initial velocities):
=====================================================================
 Subroutine PRICEL returns:
 Original cell was already a primitive cell.
 

 Routine SETGRP: Setting up the symmetry group for a 
 hexagonal supercell.


 Subroutine GETGRP returns: Found 12 space group operations
 (whereof 12 operations were pure point group operations)
 out of a pool of 24 trial point group operations.


The dynamic configuration has the point symmetry D_3d.


 Subroutine INISYM returns: Found 12 space group operations
 (whereof 12 operations are pure point group operations),
 and found     1 'primitive' translations

 writing wavefunctions
    --------------------------------------------
   GWTOTAL:  cpu time  33910.5771: real time  33965.5622
    4ORBIT:  cpu time      0.0000: real time      0.0000

 total amount of memory used by VASP MPI-rank0   369744. kBytes
=======================================================================

   base      :      30000. kBytes
   nonl-proj :     115150. kBytes
   fftplans  :       3435. kBytes
   grid      :       8108. kBytes
   one-center:        460. kBytes
   HF        :       1920. kBytes
   nonlr-proj:       1924. kBytes
   wavefun   :     125140. kBytes
   fock_wrk  :      83607. kBytes
   2eintegral:          0. kBytes
   response  :          0. kBytes
 
  
  
 General timing and accounting informations for this job:
 ========================================================
  
                  Total CPU time used (sec):    33912.938
                            User time (sec):    31778.749
                          System time (sec):     2134.188
                         Elapsed time (sec):    33967.957
  
                   Maximum memory used (kb):     4036108.
                   Average memory used (kb):          N/A
  
                          Minor page faults:    164961590
                          Major page faults:       250545
                 Voluntary context switches:       272559
