 vasp.6.4.2 20Jul23 (build Jan 14 2026 17:23:08) complex                         
 executed on             LinuxGNU date 2026.04.17  15:09:47
 running   16 mpi-ranks, with    1 threads/rank, on    1 nodes
 distrk:  each k-point on    8 cores,    2 groups
 distr:  one band on NCORE=   1 cores,    8 groups


--------------------------------------------------------------------------------------------------------


 INCAR:
   SYSTEM = BSE
   PREC = Normal
   ENCUT = 450
   ALGO = EVGW0
   ISMEAR = 0
   SIGMA = 0.05
   NELM = 1
   NBANDS = 256
   NOMEGA = 96
   LWAVE = .TRUE.
   LSPECTRAL = .TRUE.
   LOPTICS = .TRUE.
   KPAR = 2

 POTCAR:    PAW_PBE Hf_pv 06Sep2000               
 POTCAR:    PAW_PBE P 06Sep2000                   
 POTCAR:    PAW_PBE Br 06Sep2000                  
 POTCAR:    PAW_PBE Hf_pv 06Sep2000               
   VRHFIN =Hf: 5p6s5d                                                                               
   LEXCH  = PE                                                                                      
   EATOM  =   860.9206 eV,   63.2759 Ry                                                             
                                                                                                    
   TITEL  = PAW_PBE Hf_pv 06Sep2000                                                                 
   LULTRA =        F    use ultrasoft PP ?                                                          
   IUNSCR =        1    unscreen: 0-lin 1-nonlin 2-no                                               
   RPACOR =    2.500    partial core radius                                                         
   POMASS =  178.490; ZVAL   =   10.000    mass and valenz                                          
   RCORE  =    2.600    outmost cutoff radius                                                       
   RWIGS  =    3.050; RWIGS  =    1.614    wigner-seitz radius (au A)                               
   ENMAX  =  220.334; ENMIN  =  165.250 eV                                                          
   RCLOC  =    2.212    cutoff for local pot                                                        
   LCOR   =        T    correct aug charges                                                         
   LPAW   =        T    paw PP                                                                      
   EAUG   =  380.878                                                                                
   DEXC   =    0.000                                                                                
   RMAX   =    2.665    core radius for proj-oper                                                   
   RAUG   =    1.300    factor for augmentation sphere                                              
   RDEP   =    2.681    radius for radial grids                                                     
   RDEPT  =    2.139    core radius for aug-charge                                                  
                                                                                                    
   Atomic configuration                                                                             
   15 entries                                                                                       
     n  l   j            E        occ.                                                              
     1  0  0.50    -65259.4397   2.0000                                                             
     2  0  0.50    -11157.9884   2.0000                                                             
     2  1  1.50     -9795.2114   6.0000                                                             
     3  0  0.50     -2541.4060   2.0000                                                             
     3  1  1.50     -2134.4772   6.0000                                                             
     3  2  2.50     -1653.5420  10.0000                                                             
     4  0  0.50      -510.9577   2.0000                                                             
     4  1  1.50      -377.5024   6.0000                                                             
     4  2  2.50      -205.2086  10.0000                                                             
     4  3  3.50       -15.4906  14.0000                                                             
     5  0  0.50       -65.6020   2.0000                                                             
     5  1  1.50       -34.2798   6.0000                                                             
     5  2  2.50        -1.9877   3.0000                                                             
     6  0  0.50        -4.7357   1.0000                                                             
     5  3  2.50        -1.3606   0.0000                                                             
   Description                                                                                      
     l       E           TYP  RCUT    TYP  RCUT                                                     
     1    -34.2797769     23  2.500                                                                 
     1    -35.6403595     23  2.500                                                                 
     2     -1.9876655     23  2.500                                                                 
     2      0.0744675     23  2.500                                                                 
     0     -4.7356889     23  2.600                                                                 
     0      3.2364748     23  2.600                                                                 
  local pseudopotential read in
  partial core-charges read in
  partial kinetic energy density read in
  atomic valenz-charges read in
  non local Contribution for L=            1  read in
    real space projection operators read in
  non local Contribution for L=            1  read in
    real space projection operators read in
  non local Contribution for L=            2  read in
    real space projection operators read in
  non local Contribution for L=            2  read in
    real space projection operators read in
  non local Contribution for L=            0  read in
    real space projection operators read in
  non local Contribution for L=            0  read in
    real space projection operators read in
    PAW grid and wavefunctions read in
 
   number of l-projection  operators is LMAX  =            6
   number of lm-projection operators is LMMAX =           18
 
 POTCAR:    PAW_PBE P 06Sep2000                   
   VRHFIN =P : s2p3                                                                                 
   LEXCH  = PE                                                                                      
   EATOM  =   176.0430 eV,   12.9388 Ry                                                             
                                                                                                    
   TITEL  = PAW_PBE P 06Sep2000                                                                     
   LULTRA =        F    use ultrasoft PP ?                                                          
   IUNSCR =        1    unscreen: 0-lin 1-nonlin 2-no                                               
   RPACOR =    1.500    partial core radius                                                         
   POMASS =   30.974; ZVAL   =    5.000    mass and valenz                                          
   RCORE  =    1.900    outmost cutoff radius                                                       
   RWIGS  =    2.330; RWIGS  =    1.233    wigner-seitz radius (au A)                               
   ENMAX  =  255.040; ENMIN  =  191.280 eV                                                          
   ICORE  =        2    local potential                                                             
   LCOR   =        T    correct aug charges                                                         
   LPAW   =        T    paw PP                                                                      
   EAUG   =  342.924                                                                                
   DEXC   =    0.000                                                                                
   RMAX   =    1.935    core radius for proj-oper                                                   
   RAUG   =    1.300    factor for augmentation sphere                                              
   RDEP   =    1.931    radius for radial grids                                                     
   RDEPT  =    1.794    core radius for aug-charge                                                  
                                                                                                    
   Atomic configuration                                                                             
    6 entries                                                                                       
     n  l   j            E        occ.                                                              
     1  0  0.50     -2084.0982   2.0000                                                             
     2  0  0.50      -173.9859   2.0000                                                             
     2  1  1.50      -124.4865   6.0000                                                             
     3  0  0.50       -13.9692   2.0000                                                             
     3  1  0.50        -5.5067   3.0000                                                             
     3  2  1.50        -5.4423   0.0000                                                             
   Description                                                                                      
     l       E           TYP  RCUT    TYP  RCUT                                                     
     0    -13.9691527     23  1.900                                                                 
     0    -11.7794650     23  1.900                                                                 
     1     -5.5066937     23  1.900                                                                 
     1     -0.2556953     23  1.900                                                                 
     2     -5.4423304     23  1.900                                                                 
  local pseudopotential read in
  partial core-charges read in
  partial kinetic energy density read in
  atomic valenz-charges read in
  non local Contribution for L=            0  read in
    real space projection operators read in
  non local Contribution for L=            0  read in
    real space projection operators read in
  non local Contribution for L=            1  read in
    real space projection operators read in
  non local Contribution for L=            1  read in
    real space projection operators read in
    PAW grid and wavefunctions read in
 
   number of l-projection  operators is LMAX  =            4
   number of lm-projection operators is LMMAX =            8
 
 POTCAR:    PAW_PBE Br 06Sep2000                  
   VRHFIN =Br: s2p5                                                                                 
   LEXCH  = PE                                                                                      
   EATOM  =   368.4488 eV,   27.0802 Ry                                                             
                                                                                                    
   TITEL  = PAW_PBE Br 06Sep2000                                                                    
   LULTRA =        F    use ultrasoft PP ?                                                          
   IUNSCR =        1    unscreen: 0-lin 1-nonlin 2-no                                               
   RPACOR =    1.900    partial core radius                                                         
   POMASS =   79.904; ZVAL   =    7.000    mass and valenz                                          
   RCORE  =    2.100    outmost cutoff radius                                                       
   RWIGS  =    2.200; RWIGS  =    1.164    wigner-seitz radius (au A)                               
   ENMAX  =  216.285; ENMIN  =  162.214 eV                                                          
   ICORE  =        3    local potential                                                             
   LCOR   =        T    correct aug charges                                                         
   LPAW   =        T    paw PP                                                                      
   EAUG   =  503.852                                                                                
   DEXC   =    0.000                                                                                
   RMAX   =    2.139    core radius for proj-oper                                                   
   RAUG   =    1.300    factor for augmentation sphere                                              
   RDEP   =    2.186    radius for radial grids                                                     
   RDEPT  =    1.890    core radius for aug-charge                                                  
                                                                                                    
   Atomic configuration                                                                             
   10 entries                                                                                       
     n  l   j            E        occ.                                                              
     1  0  0.50    -13316.2796   2.0000                                                             
     2  0  0.50     -1732.8239   2.0000                                                             
     2  1  1.50     -1528.2193   6.0000                                                             
     3  0  0.50      -238.0460   2.0000                                                             
     3  1  1.50      -173.4609   6.0000                                                             
     3  2  2.50       -66.7132  10.0000                                                             
     4  0  0.50       -20.1334   2.0000                                                             
     4  1  0.50        -7.8591   5.0000                                                             
     4  2  2.50        -8.1635   0.0000                                                             
     4  3  2.50        -8.1635   0.0000                                                             
   Description                                                                                      
     l       E           TYP  RCUT    TYP  RCUT                                                     
     0    -20.1333652     23  2.100                                                                 
     0    -21.4939478     23  2.100                                                                 
     1     -7.8591052     23  2.100                                                                 
     1     -3.1608434     23  2.100                                                                 
     2     -8.1634956     23  2.100                                                                 
     3     -1.3605826      7  2.100                                                                 
  local pseudopotential read in
  partial core-charges read in
  partial kinetic energy density read in
  atomic valenz-charges read in
  non local Contribution for L=            0  read in
    real space projection operators read in
  non local Contribution for L=            0  read in
    real space projection operators read in
  non local Contribution for L=            1  read in
    real space projection operators read in
  non local Contribution for L=            1  read in
    real space projection operators read in
  non local Contribution for L=            2  read in
    real space projection operators read in
    PAW grid and wavefunctions read in
 
   number of l-projection  operators is LMAX  =            5
   number of lm-projection operators is LMMAX =           13
 
  PAW_PBE Hf_pv 06Sep2000               :
 energy of atom  1       EATOM= -860.9206
 kinetic energy error for atom=    0.0023 (will be added to EATOM!!)
  PAW_PBE P 06Sep2000                   :
 energy of atom  2       EATOM= -176.0430
 kinetic energy error for atom=    0.0019 (will be added to EATOM!!)
  PAW_PBE Br 06Sep2000                  :
 energy of atom  3       EATOM= -368.4488
 kinetic energy error for atom=    0.0016 (will be added to EATOM!!)
 
 
 POSCAR: HfPBr
  positions in direct lattice
  velocities in cartesian coordinates
 -----------------------------------------------------------------------------
|                                                                             |
|           W    W    AA    RRRRR   N    N  II  N    N   GGGG   !!!           |
|           W    W   A  A   R    R  NN   N  II  NN   N  G    G  !!!           |
|           W    W  A    A  R    R  N N  N  II  N N  N  G       !!!           |
|           W WW W  AAAAAA  RRRRR   N  N N  II  N  N N  G  GGG   !            |
|           WW  WW  A    A  R   R   N   NN  II  N   NN  G    G                |
|           W    W  A    A  R    R  N    N  II  N    N   GGGG   !!!           |
|                                                                             |
|     The default for ENCUTGWSOFT is different in this version of VASP.       |
|     If you wish to obtain identical results as using pre vasp.6.3           |
|     please manually set ENCUTGWSOFT =300 in the INCAR file.                 |
|                                                                             |
 -----------------------------------------------------------------------------

 exchange correlation table for  LEXCH =        8
   RHO(1)=    0.500       N(1)  =     2000
   RHO(2)=  100.500       N(2)  =     4000
 


--------------------------------------------------------------------------------------------------------


 ion  position               nearest neighbor table
   1  0.333  0.667  0.584-   4 2.54   4 2.54   4 2.54   3 2.66   6 2.96   6 2.96   6 2.96
   2  0.667  0.333  0.416-   3 2.54   3 2.54   3 2.54   4 2.66   5 2.96   5 2.96   5 2.96
   3  0.333  0.667  0.463-   2 2.54   2 2.54   2 2.54   1 2.66   4 2.84   4 2.84   4 2.84
   4  0.667  0.333  0.537-   1 2.54   1 2.54   1 2.54   2 2.66   3 2.84   3 2.84   3 2.84
   5  1.000  1.000  0.333-   2 2.96   2 2.96   2 2.96
   6  0.000  0.000  0.667-   1 2.96   1 2.96   1 2.96
 
  LATTYP: Found a hexagonal cell.
 ALAT       =     4.0284482012
 C/A-ratio  =     5.4475237845
  
  Lattice vectors:
  
 A1 = (   4.0284482012,   0.0000003874,  -0.0000000333)
 A2 = (  -2.0142237620,   3.4887388994,  -0.0000000572)
 A3 = (  -0.0000001265,  -0.0000005312,  21.9450673906)


Analysis of symmetry for initial positions (statically):
=====================================================================
 Subroutine PRICEL returns:
 Original cell was already a primitive cell.
 

 Routine SETGRP: Setting up the symmetry group for a 
 hexagonal supercell.


 Subroutine GETGRP returns: Found 12 space group operations
 (whereof 12 operations were pure point group operations)
 out of a pool of 24 trial point group operations.


The static configuration has the point symmetry D_3d.


Analysis of symmetry for dynamics (positions and initial velocities):
=====================================================================
 Subroutine PRICEL returns:
 Original cell was already a primitive cell.
 

 Routine SETGRP: Setting up the symmetry group for a 
 hexagonal supercell.


 Subroutine GETGRP returns: Found 12 space group operations
 (whereof 12 operations were pure point group operations)
 out of a pool of 24 trial point group operations.


The dynamic configuration has the point symmetry D_3d.


 Subroutine INISYM returns: Found 12 space group operations
 (whereof 12 operations are pure point group operations),
 and found     1 'primitive' translations


----------------------------------------------------------------------------------------

                                     Primitive cell                                     

  volume of cell :     308.4205

  direct lattice vectors                    reciprocal lattice vectors
     4.028448201  0.000000387 -0.000000033     0.248234530  0.143318231  0.000000005
    -2.014223762  3.488738899 -0.000000057    -0.000000028  0.286636511  0.000000007
    -0.000000126 -0.000000531 21.945067391     0.000000000  0.000000001  0.045568327

  length of vectors
     4.028448201  4.028448395 21.945067391     0.286636524  0.286636511  0.045568327

  position of ions in fractional coordinates (direct lattice)
     0.333333328  0.666666708  0.583781440
     0.666666665  0.333333299  0.416219713
     0.333333323  0.666666697  0.462743106
     0.666666675  0.333333308  0.537255908
     0.999999987  0.999999981  0.333027447
     0.000000023  0.000000008  0.666972387

  ion indices of the primitive-cell ions
   primitive index   ion index
                 1           1
                 2           2
                 3           3
                 4           4
                 5           5
                 6           6

----------------------------------------------------------------------------------------

 
 
 KPOINTS: K-Spacing Value to Generate K-Mesh: 0.02

Automatic generation of k-mesh.
 Grid dimensions read from file:
 generate k-points for:   12   12    1

 Generating k-lattice:

  Cartesian coordinates                     Fractional coordinates (reciprocal lattice)
     0.020686211  0.011943186  0.000000000     0.083333333  0.000000000  0.000000000
    -0.000000002  0.023886376  0.000000001    -0.000000000  0.083333333  0.000000000
     0.000000000  0.000000001  0.045568327     0.000000000  0.000000000  1.000000000

  Length of vectors
     0.023886377  0.023886376  0.045568327

  Shift w.r.t. Gamma in fractional coordinates (k-lattice)
     0.000000000  0.000000000  0.000000000

 
 Subroutine IBZKPT returns following result:
 ===========================================
 
 Found     19 irreducible k-points:
 
 Following reciprocal coordinates:
            Coordinates               Weight
  0.000000  0.000000  0.000000      1.000000
  0.083333  0.000000  0.000000      6.000000
  0.166667  0.000000  0.000000      6.000000
  0.250000  0.000000  0.000000      6.000000
  0.333333  0.000000  0.000000      6.000000
  0.416667  0.000000  0.000000      6.000000
  0.500000  0.000000  0.000000      3.000000
  0.083333  0.083333  0.000000      6.000000
  0.166667  0.083333  0.000000     12.000000
  0.250000  0.083333  0.000000     12.000000
  0.333333  0.083333  0.000000     12.000000
  0.416667  0.083333  0.000000     12.000000
  0.166667  0.166667  0.000000      6.000000
  0.250000  0.166667  0.000000     12.000000
  0.333333  0.166667  0.000000     12.000000
  0.416667  0.166667  0.000000      6.000000
  0.250000  0.250000  0.000000      6.000000
  0.333333  0.250000  0.000000     12.000000
  0.333333  0.333333  0.000000      2.000000
 
 Following cartesian coordinates:
            Coordinates               Weight
  0.000000  0.000000  0.000000      1.000000
  0.020686  0.011943  0.000000      6.000000
  0.041372  0.023886  0.000000      6.000000
  0.062059  0.035830  0.000000      6.000000
  0.082745  0.047773  0.000000      6.000000
  0.103431  0.059716  0.000000      6.000000
  0.124117  0.071659  0.000000      3.000000
  0.020686  0.035830  0.000000      6.000000
  0.041372  0.047773  0.000000     12.000000
  0.062059  0.059716  0.000000     12.000000
  0.082745  0.071659  0.000000     12.000000
  0.103431  0.083602  0.000000     12.000000
  0.041372  0.071659  0.000000      6.000000
  0.062059  0.083602  0.000000     12.000000
  0.082745  0.095545  0.000000     12.000000
  0.103431  0.107489  0.000000      6.000000
  0.062059  0.107489  0.000000      6.000000
  0.082745  0.119432  0.000000     12.000000
  0.082745  0.143318  0.000000      2.000000
 
 
 Subroutine IBZKPT_HF returns following result:
 ==============================================
 
 Found    144 k-points in 1st BZ
 the following    144 k-points will be used (e.g. in the exchange kernel)
 Following reciprocal coordinates:   # in IRBZ
  0.000000  0.000000  0.000000    0.00694444   1 t-inv F
  0.083333  0.000000  0.000000    0.00694444   2 t-inv F
  0.166667  0.000000  0.000000    0.00694444   3 t-inv F
  0.250000  0.000000  0.000000    0.00694444   4 t-inv F
  0.333333  0.000000  0.000000    0.00694444   5 t-inv F
  0.416667  0.000000  0.000000    0.00694444   6 t-inv F
  0.500000  0.000000  0.000000    0.00694444   7 t-inv F
  0.083333  0.083333  0.000000    0.00694444   8 t-inv F
  0.166667  0.083333  0.000000    0.00694444   9 t-inv F
  0.250000  0.083333  0.000000    0.00694444  10 t-inv F
  0.333333  0.083333  0.000000    0.00694444  11 t-inv F
  0.416667  0.083333  0.000000    0.00694444  12 t-inv F
  0.166667  0.166667  0.000000    0.00694444  13 t-inv F
  0.250000  0.166667  0.000000    0.00694444  14 t-inv F
  0.333333  0.166667  0.000000    0.00694444  15 t-inv F
  0.416667  0.166667  0.000000    0.00694444  16 t-inv F
  0.250000  0.250000  0.000000    0.00694444  17 t-inv F
  0.333333  0.250000  0.000000    0.00694444  18 t-inv F
  0.333333  0.333333  0.000000    0.00694444  19 t-inv F
 -0.083333 -0.000000 -0.000000    0.00694444   2 t-inv F
 -0.083333  0.083333  0.000000    0.00694444   2 t-inv F
  0.083333 -0.083333 -0.000000    0.00694444   2 t-inv F
  0.000000 -0.083333  0.000000    0.00694444   2 t-inv F
 -0.000000  0.083333 -0.000000    0.00694444   2 t-inv F
 -0.166667 -0.000000 -0.000000    0.00694444   3 t-inv F
 -0.166667  0.166667  0.000000    0.00694444   3 t-inv F
  0.166667 -0.166667 -0.000000    0.00694444   3 t-inv F
  0.000000 -0.166667  0.000000    0.00694444   3 t-inv F
 -0.000000  0.166667 -0.000000    0.00694444   3 t-inv F
 -0.250000 -0.000000 -0.000000    0.00694444   4 t-inv F
 -0.250000  0.250000  0.000000    0.00694444   4 t-inv F
  0.250000 -0.250000 -0.000000    0.00694444   4 t-inv F
  0.000000 -0.250000  0.000000    0.00694444   4 t-inv F
 -0.000000  0.250000 -0.000000    0.00694444   4 t-inv F
 -0.333333 -0.000000 -0.000000    0.00694444   5 t-inv F
 -0.333333  0.333333  0.000000    0.00694444   5 t-inv F
  0.333333 -0.333333 -0.000000    0.00694444   5 t-inv F
  0.000000 -0.333333  0.000000    0.00694444   5 t-inv F
 -0.000000  0.333333 -0.000000    0.00694444   5 t-inv F
 -0.416667 -0.000000 -0.000000    0.00694444   6 t-inv F
 -0.416667  0.416667  0.000000    0.00694444   6 t-inv F
  0.416667 -0.416667 -0.000000    0.00694444   6 t-inv F
  0.000000 -0.416667  0.000000    0.00694444   6 t-inv F
 -0.000000  0.416667 -0.000000    0.00694444   6 t-inv F
 -0.500000  0.500000  0.000000    0.00694444   7 t-inv F
  0.000000 -0.500000  0.000000    0.00694444   7 t-inv F
 -0.083333 -0.083333 -0.000000    0.00694444   8 t-inv F
 -0.166667  0.083333  0.000000    0.00694444   8 t-inv F
  0.166667 -0.083333 -0.000000    0.00694444   8 t-inv F
  0.083333 -0.166667  0.000000    0.00694444   8 t-inv F
 -0.083333  0.166667 -0.000000    0.00694444   8 t-inv F
 -0.166667 -0.083333 -0.000000    0.00694444   9 t-inv F
 -0.250000  0.166667  0.000000    0.00694444   9 t-inv F
  0.250000 -0.166667 -0.000000    0.00694444   9 t-inv F
  0.083333 -0.250000  0.000000    0.00694444   9 t-inv F
 -0.083333  0.250000 -0.000000    0.00694444   9 t-inv F
  0.166667 -0.250000 -0.000000    0.00694444   9 t-inv F
 -0.166667  0.250000  0.000000    0.00694444   9 t-inv F
 -0.250000  0.083333 -0.000000    0.00694444   9 t-inv F
  0.250000 -0.083333  0.000000    0.00694444   9 t-inv F
  0.083333  0.166667 -0.000000    0.00694444   9 t-inv F
 -0.083333 -0.166667  0.000000    0.00694444   9 t-inv F
 -0.250000 -0.083333 -0.000000    0.00694444  10 t-inv F
 -0.333333  0.250000  0.000000    0.00694444  10 t-inv F
  0.333333 -0.250000 -0.000000    0.00694444  10 t-inv F
  0.083333 -0.333333  0.000000    0.00694444  10 t-inv F
 -0.083333  0.333333 -0.000000    0.00694444  10 t-inv F
  0.250000 -0.333333 -0.000000    0.00694444  10 t-inv F
 -0.250000  0.333333  0.000000    0.00694444  10 t-inv F
 -0.333333  0.083333 -0.000000    0.00694444  10 t-inv F
  0.333333 -0.083333  0.000000    0.00694444  10 t-inv F
  0.083333  0.250000 -0.000000    0.00694444  10 t-inv F
 -0.083333 -0.250000  0.000000    0.00694444  10 t-inv F
 -0.333333 -0.083333 -0.000000    0.00694444  11 t-inv F
 -0.416667  0.333333  0.000000    0.00694444  11 t-inv F
  0.416667 -0.333333 -0.000000    0.00694444  11 t-inv F
  0.083333 -0.416667  0.000000    0.00694444  11 t-inv F
 -0.083333  0.416667 -0.000000    0.00694444  11 t-inv F
  0.333333 -0.416667 -0.000000    0.00694444  11 t-inv F
 -0.333333  0.416667  0.000000    0.00694444  11 t-inv F
 -0.416667  0.083333 -0.000000    0.00694444  11 t-inv F
  0.416667 -0.083333  0.000000    0.00694444  11 t-inv F
  0.083333  0.333333 -0.000000    0.00694444  11 t-inv F
 -0.083333 -0.333333  0.000000    0.00694444  11 t-inv F
 -0.416667 -0.083333 -0.000000    0.00694444  12 t-inv F
 -0.500000  0.416667  0.000000    0.00694444  12 t-inv F
  0.500000 -0.416667 -0.000000    0.00694444  12 t-inv F
  0.083333 -0.500000  0.000000    0.00694444  12 t-inv F
 -0.083333  0.500000 -0.000000    0.00694444  12 t-inv F
  0.416667 -0.500000 -0.000000    0.00694444  12 t-inv F
 -0.416667  0.500000  0.000000    0.00694444  12 t-inv F
 -0.500000  0.083333 -0.000000    0.00694444  12 t-inv F
  0.500000 -0.083333  0.000000    0.00694444  12 t-inv F
  0.083333  0.416667 -0.000000    0.00694444  12 t-inv F
 -0.083333 -0.416667  0.000000    0.00694444  12 t-inv F
 -0.166667 -0.166667 -0.000000    0.00694444  13 t-inv F
 -0.333333  0.166667  0.000000    0.00694444  13 t-inv F
  0.333333 -0.166667 -0.000000    0.00694444  13 t-inv F
  0.166667 -0.333333  0.000000    0.00694444  13 t-inv F
 -0.166667  0.333333 -0.000000    0.00694444  13 t-inv F
 -0.250000 -0.166667 -0.000000    0.00694444  14 t-inv F
 -0.416667  0.250000  0.000000    0.00694444  14 t-inv F
  0.416667 -0.250000 -0.000000    0.00694444  14 t-inv F
  0.166667 -0.416667  0.000000    0.00694444  14 t-inv F
 -0.166667  0.416667 -0.000000    0.00694444  14 t-inv F
  0.250000 -0.416667 -0.000000    0.00694444  14 t-inv F
 -0.250000  0.416667  0.000000    0.00694444  14 t-inv F
 -0.416667  0.166667 -0.000000    0.00694444  14 t-inv F
  0.416667 -0.166667  0.000000    0.00694444  14 t-inv F
  0.166667  0.250000 -0.000000    0.00694444  14 t-inv F
 -0.166667 -0.250000  0.000000    0.00694444  14 t-inv F
 -0.333333 -0.166667 -0.000000    0.00694444  15 t-inv F
 -0.500000  0.333333  0.000000    0.00694444  15 t-inv F
  0.500000 -0.333333 -0.000000    0.00694444  15 t-inv F
  0.166667 -0.500000  0.000000    0.00694444  15 t-inv F
 -0.166667  0.500000 -0.000000    0.00694444  15 t-inv F
  0.333333 -0.500000 -0.000000    0.00694444  15 t-inv F
 -0.333333  0.500000  0.000000    0.00694444  15 t-inv F
 -0.500000  0.166667 -0.000000    0.00694444  15 t-inv F
  0.500000 -0.166667  0.000000    0.00694444  15 t-inv F
  0.166667  0.333333 -0.000000    0.00694444  15 t-inv F
 -0.166667 -0.333333  0.000000    0.00694444  15 t-inv F
 -0.416667 -0.166667 -0.000000    0.00694444  16 t-inv F
 -0.583333  0.416667  0.000000    0.00694444  16 t-inv F
  0.583333 -0.416667 -0.000000    0.00694444  16 t-inv F
  0.166667 -0.583333  0.000000    0.00694444  16 t-inv F
 -0.166667  0.583333 -0.000000    0.00694444  16 t-inv F
 -0.250000 -0.250000 -0.000000    0.00694444  17 t-inv F
 -0.500000  0.250000  0.000000    0.00694444  17 t-inv F
  0.500000 -0.250000 -0.000000    0.00694444  17 t-inv F
  0.250000 -0.500000  0.000000    0.00694444  17 t-inv F
 -0.250000  0.500000 -0.000000    0.00694444  17 t-inv F
 -0.333333 -0.250000 -0.000000    0.00694444  18 t-inv F
 -0.583333  0.333333  0.000000    0.00694444  18 t-inv F
  0.583333 -0.333333 -0.000000    0.00694444  18 t-inv F
  0.250000 -0.583333  0.000000    0.00694444  18 t-inv F
 -0.250000  0.583333 -0.000000    0.00694444  18 t-inv F
  0.333333 -0.583333 -0.000000    0.00694444  18 t-inv F
 -0.333333  0.583333  0.000000    0.00694444  18 t-inv F
 -0.583333  0.250000 -0.000000    0.00694444  18 t-inv F
  0.583333 -0.250000  0.000000    0.00694444  18 t-inv F
  0.250000  0.333333 -0.000000    0.00694444  18 t-inv F
 -0.250000 -0.333333  0.000000    0.00694444  18 t-inv F
 -0.333333 -0.333333 -0.000000    0.00694444  19 t-inv F


--------------------------------------------------------------------------------------------------------




 Dimension of arrays:
   k-points           NKPTS =     19   k-points in BZ     NKDIM =    144   number of bands    NBANDS=    256
   number of dos      NEDOS =    301   number of ions     NIONS =      6
   non local maximal  LDIM  =      6   non local SUM 2l+1 LMDIM =     18
   total plane-waves  NPLWV =  69120
   max r-space proj   IRMAX =      1   max aug-charges    IRDMAX=  12617
   dimension x,y,z NGX =    24 NGY =   24 NGZ =  120
   dimension x,y,z NGXF=    48 NGYF=   48 NGZF=  240
   support grid    NGXF=    48 NGYF=   48 NGZF=  240
   ions per type =               2   2   2
   NGX,Y,Z   is equivalent  to a cutoff of   9.90,  9.90,  9.09 a.u.
   NGXF,Y,Z  is equivalent  to a cutoff of  19.81, 19.81, 18.18 a.u.

 SYSTEM =  BSE                                     
 POSCAR =  HfPBr                                   

 Startparameter for this run:
   NWRITE =      2    write-flag & timer
   PREC   = normal    normal or accurate (medium, high low for compatibility)
   ISTART =      1    job   : 0-new  1-cont  2-samecut
   ICHARG =      0    charge: 1-file 2-atom 10-const
   ISPIN  =      1    spin polarized calculation?
   LNONCOLLINEAR =      F non collinear calculations
   LSORBIT =      F    spin-orbit coupling
   INIWAV =      1    electr: 0-lowe 1-rand  2-diag
   LASPH  =      F    aspherical Exc in radial PAW
 Electronic Relaxation 1
   ENCUT  =  450.0 eV  33.07 Ry    5.75 a.u.   6.97  6.97 37.96*2*pi/ulx,y,z
   ENINI  =  450.0     initial cutoff
   ENAUG  =  503.9 eV  augmentation charge cutoff
   NELM   =      1;   NELMIN=  2; NELMDL=  0     # of ELM steps 
   EDIFF  = 0.1E-03   stopping-criterion for ELM
   LREAL  =      F    real-space projection
   NLSPLINE    = F    spline interpolate recip. space projectors
   LCOMPAT=      F    compatible to vasp.4.4
   GGA_COMPAT  = T    GGA compatible to vasp.4.4-vasp.4.6
   LMAXPAW     = -100 max onsite density
   LMAXMIX     =    2 max onsite mixed and CHGCAR
   VOSKOWN=      0    Vosko Wilk Nusair interpolation
   ROPT   =    0.00000   0.00000   0.00000
 Ionic relaxation
   EDIFFG = 0.1E-02   stopping-criterion for IOM
   NSW    =      0    number of steps for IOM
   NBLOCK =      1;   KBLOCK =      1    inner block; outer block 
   IBRION =     -1    ionic relax: 0-MD 1-quasi-New 2-CG
   NFREE  =      0    steps in history (QN), initial steepest desc. (CG)
   ISIF   =      0    stress and relaxation
   IWAVPR =     10    prediction:  0-non 1-charg 2-wave 3-comb
   ISYM   =      3    0-nonsym 1-usesym 2-fastsym
   LCORR  =      T    Harris-Foulkes like correction to forces

   POTIM  = 0.5000    time-step for ionic-motion
   TEIN   =    0.0    initial temperature
   TEBEG  =    0.0;   TEEND  =   0.0 temperature during run
   SMASS  =  -3.00    Nose mass-parameter (am)
   estimated Nose-frequenzy (Omega)   =  0.10E-29 period in steps = 0.13E+47 mass=  -0.371E-27a.u.
   SCALEE = 1.0000    scale energy and forces
   NPACO  =    256;   APACO  = 10.0  distance and # of slots for P.C.
   PSTRESS=    0.0 pullay stress

  Mass of Ions in am
   POMASS = 178.49 30.97 79.90
  Ionic Valenz
   ZVAL   =  10.00  5.00  7.00
  Atomic Wigner-Seitz radii
   RWIGS  =  -1.00 -1.00 -1.00
  virtual crystal weights 
   VCA    =   1.00  1.00  1.00
   NELECT =      44.0000    total number of electrons
   NUPDOWN=      -1.0000    fix difference up-down

 DOS related values:
   EMIN   =  10.00;   EMAX   =-10.00  energy-range for DOS
   EFERMI =   0.00;   METHOD = LEGACY      
   ISMEAR =     0;   SIGMA  =   0.05  broadening in eV -4-tet -1-fermi 0-gaus

 Electronic relaxation 2 (details)
   IALGO  =     38    algorithm
   LDIAG  =      T    sub-space diagonalisation (order eigenvalues)
   LSUBROT=      F    optimize rotation matrix (better conditioning)
   TURBO    =      0    0=normal 1=particle mesh
   IRESTART =      0    0=no restart 2=restart with 2 vectors
   NREBOOT  =      0    no. of reboots
   NMIN     =      0    reboot dimension
   EREF     =   0.00    reference energy to select bands
   IMIX   =      4    mixing-type and parameters
     AMIX     =   0.40;   BMIX     =  1.00
     AMIX_MAG =   1.60;   BMIX_MAG =  1.00
     AMIN     =   0.10
     WC   =   100.;   INIMIX=   1;  MIXPRE=   1;  MAXMIX= -45

 Intra band minimization:
   WEIMIN = 0.0000     energy-eigenvalue tresh-hold
   EBREAK =  0.98E-07  absolut break condition
   DEPER  =   0.30     relativ break condition  

   TIME   =   0.40     timestep for ELM

  volume/ion in A,a.u.               =      51.40       346.89
  Fermi-wavevector in a.u.,A,eV,Ry     =   0.855417  1.616504  9.955908  0.731739
  Thomas-Fermi vector in A             =   1.972163
 
 Write flags
   LWAVE        =      T    write WAVECAR
   LDOWNSAMPLE  =      F    k-point downsampling of WAVECAR
   LCHARG       =      T    write CHGCAR
   LVTOT        =      F    write LOCPOT, total local potential
   LVHAR        =      F    write LOCPOT, Hartree potential only
   LELF         =      F    write electronic localiz. function (ELF)
   LORBIT       =      0    0 simple, 1 ext, 2 COOP (PROOUT), +10 PAW based schemes


 Dipole corrections
   LMONO  =      F    monopole corrections only (constant potential shift)
   LDIPOL =      F    correct potential (dipole corrections)
   IDIPOL =      0    1-x, 2-y, 3-z, 4-all directions 
   EPSILON=  1.0000000 bulk dielectric constant

 Exchange correlation treatment:
   GGA     =    --    GGA type
   LEXCH   =     8    internal setting for exchange type
   LIBXC   =     F    Libxc                    
   VOSKOWN =     0    Vosko Wilk Nusair interpolation
   EXXOEP  =     0    0=HF, 1=EXX-LHF (local Hartree Fock) 2=EXX OEP
   LHFCALC =     T    Hartree Fock is set to
   LSYMGRAD=     F    symmetrize gradient (conserves proper symmetry)
   PRECFOCK=normal    Normal, Fast or Accurate (Low or Medium for compatibility)
   LRHFCALC=     F    long range Hartree Fock
   LRSCOR  =     F    long range correlation only (use DFT for short range part)
   LTHOMAS =     F    Thomas Fermi screening in HF
   LMODELHF=     F    short range full HF, long range fraction AEXX
   FOCKCORR=     2    mode to apply convergence corrections
   LFOCKACE=     T    use Adeptively-Compressed-Exchange operator
   ENCUT4O =  -1.0   cutoff for four orbital integrals eV
   LMAXFOCK=     4    L truncation for augmentation on plane wave grid
   LMAXFOCKAE=   4    L truncation for all-electron charge restoration on plane wave grid
   NMAXFOCKAE=   1    number of basis functions for all-electron charge restoration
   LFOCKAEDFT=     F  apply the AE augmentation even for DFT
   NKREDX  =     1    reduce k-point grid by
   NKREDY  =     1    reduce k-point grid by
   NKREDZ  =     1    reduce k-point grid by
   SHIFTRED=     F    shift reduced grid of Gamma
   HFKIDENT=     F    idential grid for each k-point
   ODDONLY =     F    use only odd q-grid points
   EVENONLY=     F    use only even q-grid points
   HFALPHA =   -1.0000 decay constant for conv. correction
   MCALPHA =    0.0000 extent of test-charge in conv. correction in multipole expansion
   AEXX    =    1.0000 exact exchange contribution
   HFSCREEN=    0.0000 screening length (either q_TF or 0.3 A-1)
   HFSCREENC=   0.0000 screening length for correlation (either q_TF or 0.3 A-1)
   HFRCUT  =    0.0000 spherical cutoff for potential kernel
   ALDAX   =    0.0000 LDA exchange part
   AGGAX   =    0.0000 GGA exchange part
   ALDAC   =    0.0000 LDA correlation
   AGGAC   =    0.0000 GGA correlation
   ENCUTFOCK=  -1.0 apply spherical cutoff to Coloumb kernel
   NBANDSGWLOW=     1    first orbital included in HF term
   NBLOCK_FOCK=    64    blocking factor in FOCK_ACC

 Linear response parameters
   LEPSILON=     F    determine dielectric tensor
   LRPA    =     F    only Hartree local field effects (RPA)
   LNABLA  =     F    use nabla operator in PAW spheres
   LVEL    =     F    velocity operator in full k-point grid
   CSHIFT  =0.1000    complex shift for real part using Kramers Kronig
   OMEGAMAX=  -1.0    maximum frequency
   DEG_THRESHOLD= 0.2000000E-02 threshold for treating states as degnerate
   RTIME   =   -0.100 relaxation time in fs
  (WPLASMAI=    0.000 imaginary part of plasma frequency in eV, 0.658/RTIME)
   DFIELD  = 0.0000000 0.0000000 0.0000000 field for delta impulse in time
 
  Optional k-point grid parameters
   LKPOINTS_OPT  =     F    use optional k-point grid
   KPOINTS_OPT_MODE=     1    mode for optional k-point grid
 
 Orbital magnetization related:
   ORBITALMAG=     F  switch on orbital magnetization
   LCHIMAG   =     F  perturbation theory with respect to B field
   DQ        =  0.001000  dq finite difference perturbation B field
   LLRAUG    =     F  two centre corrections for induced B field
   LBONE     =     F  B-component reconstruction in AE one-centre
   LVGVCALC  =     T  calculate vGv susceptibility
   LVGVAPPL  =     F  apply vGv susceptibility instead of pGv for G=0

 Response functions by sum over occupied states:
   ALGO                =  EVGW0   selected many-body perturbation algorithm
   LALL_IN_ONE         =     F    all in one mode selected?
   IALL_IN_ONE         =    -1    all in one mode id
   NBANDS_WAVE         =    -1    number of bands written to file
   LFINITE_TEMPERATURE =     F    use finite temperature formalism
   LFXC                =     F    include DFT xc kernel in TD-HF and W
   LADDER              =     F    particle hole ladder diagrams for BSE/TD-HF and W (Nano-quanta)
   LRPAFORCE           =     F    calculate RPA forces
   LHARTREE            =     T    include Hartree terms (bubbles-RPA) in BSE/TD-HF
   IBSE                =     0    BSE modus: 0 exact, 1 time-evolution (store matrix), 10 time-evolution (implicit)
   KPOINT              =    -1   0   0   0    k-point index at which BSE equation is solved (and G at which response is eval.)
   LTRIPLET            =     F    triplet instead of singlet excitation (BSE only)
   LRSRPA              =     F    range separated RPA (total - short) in ACFDT
   LTCTC               =     F    use test-charge test-charge for self-energy (with ALGO=QPBSE)
   LTCTE               =     F    use test-charge test-electron dielectric function
   LTETE               =     F    use test-electron test-electron dielectric function
   LFXCEPS             =     F    determine f_xc=epsilon-1/Xi Sharma and Gross kernel
   LFXHEG              =     F    model exchange using f_x(G,k_F) from free electron gas
   NATURALO            =     2    0 natural orbitals, 1 only virtual, 2 only occupied-virtual rotation
   LHOLEGF             =     F    use holes in self-consistent GW 
   L2ORDER             =     F    2nd order terms only
   LDMP1               =     F    first order term in ACFDT routine is calculated
   LMP2LT              =     F    use LT MP2
   LSMP2LT             =     F    use stochastic LT MP2
   LGWLF               =     F    use W potentials for exchange like diagrams
   ENCUTGW             = 300.0    cutoff for response function in eV
   ENCUTGWSOFT         = 240.0    soft cutoff for Coulomb kernel in GW response function in eV
   ENCUTLF             =  -1.0    cutoff for local field effects
   LESF_SPLINES        =     F    tricubic splines for electronic structure factor S(q+G)
   LMAXMP2             =    -1    maximum L for one center terms
   SCISSOR             =   0.0    scissor correction
   NOMEGA              =    96    number of frequencies
   NOMEGAR             =    96    number of frequencies along real axis
   NBANDSGW            =    -1    number of bands for which selfenergy shift is calculated
   NBANDSGWLOW         =     1    lowest band included in GW (to exclude core correlation)
   NBANDSO             =    -1    number of bands for electron-hole treatment (occupied)
   NBANDSV             =    -1    number of bands for electron-hole treatment (virtual)
   NELMGW              =     1    number of iterations in solving QP/BSE equation
   NELMHF              =     1    number of iterations in the inner HF iteration
   DIM                 =     3    dimensionality of system (0=0D molecules, 3=3D)
   IEPSILON            =     4    cartesion direction for which dielectric function is calculated (4=all)
   ANTIRES             =     0    antiresonant part (0) no TDA (1) w=0 exact (2) accurate
   OMEGAMAX            = -30.0    maximum frequency
   OMEGAMIN            = -30.0    minimum frequency
   OMEGATL             =-200.0    maximum frequency of tail
   OMEGAGRID           =     0    grid type (0 default)
   CSHIFT              =  -0.1    complex shift used in evaluation of response functions
   LSELFENERGY         =     F    calculate selfenergy instead of QP shifts
   LSPECTRAL           =     T    use spectral functions                   
   LSPECTRALGW         =     F    use spectral functions to calculate int dz G(w-z) W(z) (more accurate)
   LSINGLES            =     F    calculate the singles contribution to the correlation energy
   LFERMIGW            =     F    update Fermi-energy in the Greens function

   ODDONLYGW           =     F    avoid all even points for polarizability 
   EVENONLYGW          =     F    avoid all odd  points for polarizability 
   NKREDLFX            =     1    NKREDLFY  =   1   NKREDLFZ  =   1

   TELESCOPE           =     0    use telescope k-point sampling
   NTAUPAR             =    -1    number of TAU groups used in imaginary time calculation
   NOMEGAPAR           =    -1    number of OMEGA groups used in imaginary frequency calculation
   DAMP_NEWTON         =0.8000    damping for Newton step for position update when RPA forces are used

 Random number generation:
   RANDOM_GENERATOR = DEFAULT
   PCG_SEED         = not used


--------------------------------------------------------------------------------------------------------


 Static calculation
 charge density and potential will be updated during run
 non-spin polarized calculation
 Variant of blocked Davidson
 Davidson routine will perform the subspace rotation
 perform sub-space diagonalisation
    after iterative eigenvector-optimisation
 modified Broyden-mixing scheme, WC =      100.0
 initial mixing is a Kerker type mixing with AMIX =  0.4000 and BMIX =      1.0000
 Hartree-type preconditioning will be used
 using additional bands           234
 reciprocal scheme for non local part
 use partial core corrections
 calculate Harris-corrections to forces 
   (improved forces if not selfconsistent)
 use gradient corrections 
 use of overlap-Matrix (Vanderbilt PP)
 Gauss-broadening in eV      SIGMA  =   0.05


--------------------------------------------------------------------------------------------------------


  energy-cutoff  :      450.00
  volume of cell :      308.42
      direct lattice vectors                 reciprocal lattice vectors
     4.028448201  0.000000387 -0.000000033     0.248234530  0.143318231  0.000000005
    -2.014223762  3.488738899 -0.000000057    -0.000000028  0.286636511  0.000000007
    -0.000000126 -0.000000531 21.945067391     0.000000000  0.000000001  0.045568327

  length of vectors
     4.028448201  4.028448395 21.945067391     0.286636524  0.286636511  0.045568327


 
 old parameters found on file WAVECAR:
  energy-cutoff  :      450.00
  volume of cell :      308.42
      direct lattice vectors                 reciprocal lattice vectors
     4.028448201  0.000000387 -0.000000033     0.248234530  0.143318231  0.000000005
    -2.014223762  3.488738899 -0.000000057    -0.000000028  0.286636511  0.000000007
    -0.000000126 -0.000000531 21.945067391     0.000000000  0.000000001  0.045568327

  length of vectors

 
 k-points in units of 2pi/SCALE and weight: K-Spacing Value to Generate K-Mesh: 0.02
   0.00000000  0.00000000  0.00000000       0.007
   0.02068621  0.01194319  0.00000000       0.042
   0.04137242  0.02388637  0.00000000       0.042
   0.06205863  0.03582956  0.00000000       0.042
   0.08274484  0.04777274  0.00000000       0.042
   0.10343105  0.05971593  0.00000000       0.042
   0.12411726  0.07165912  0.00000000       0.021
   0.02068621  0.03582956  0.00000000       0.042
   0.04137242  0.04777275  0.00000000       0.083
   0.06205863  0.05971593  0.00000000       0.083
   0.08274484  0.07165912  0.00000000       0.083
   0.10343105  0.08360231  0.00000000       0.083
   0.04137242  0.07165912  0.00000000       0.042
   0.06205863  0.08360231  0.00000000       0.083
   0.08274484  0.09554550  0.00000000       0.083
   0.10343105  0.10748868  0.00000000       0.042
   0.06205863  0.10748869  0.00000000       0.042
   0.08274484  0.11943187  0.00000000       0.083
   0.08274483  0.14331825  0.00000000       0.014
 
 k-points in reciprocal lattice and weights: K-Spacing Value to Generate K-Mesh: 0.02
   0.00000000  0.00000000  0.00000000       0.007
   0.08333333  0.00000000  0.00000000       0.042
   0.16666667  0.00000000  0.00000000       0.042
   0.25000000  0.00000000  0.00000000       0.042
   0.33333333  0.00000000  0.00000000       0.042
   0.41666667  0.00000000  0.00000000       0.042
   0.50000000  0.00000000  0.00000000       0.021
   0.08333333  0.08333333  0.00000000       0.042
   0.16666667  0.08333333  0.00000000       0.083
   0.25000000  0.08333333  0.00000000       0.083
   0.33333333  0.08333333  0.00000000       0.083
   0.41666667  0.08333333  0.00000000       0.083
   0.16666667  0.16666667  0.00000000       0.042
   0.25000000  0.16666667  0.00000000       0.083
   0.33333333  0.16666667  0.00000000       0.083
   0.41666667  0.16666667  0.00000000       0.042
   0.25000000  0.25000000  0.00000000       0.042
   0.33333333  0.25000000  0.00000000       0.083
   0.33333333  0.33333333  0.00000000       0.014
 
 position of ions in fractional coordinates (direct lattice) 
   0.33333333  0.66666671  0.58378144
   0.66666666  0.33333330  0.41621971
   0.33333332  0.66666670  0.46274311
   0.66666667  0.33333331  0.53725591
   0.99999999  0.99999998  0.33302745
   0.00000002  0.00000001  0.66697239
 
 position of ions in cartesian coordinates  (Angst):
   0.00000005  2.32582590 12.81112299
   2.01422422  1.16291288  9.13396960
   0.00000006  2.32582592 10.15492859
   2.01422423  1.16291285 11.79011707
   2.01422438  3.48873904  7.30830967
  -0.00000001 -0.00000033 14.63675397
 


--------------------------------------------------------------------------------------------------------


 k-point   1 :   0.0000 0.0000 0.0000  plane waves:    6621
 k-point   2 :   0.0833 0.0000 0.0000  plane waves:    6620
 k-point   3 :   0.1667 0.0000 0.0000  plane waves:    6634
 k-point   4 :   0.2500 0.0000 0.0000  plane waves:    6664
 k-point   5 :   0.3333 0.0000 0.0000  plane waves:    6702
 k-point   6 :   0.4167 0.0000 0.0000  plane waves:    6696
 k-point   7 :   0.5000 0.0000 0.0000  plane waves:    6674
 k-point   8 :   0.0833 0.0833 0.0000  plane waves:    6633
 k-point   9 :   0.1667 0.0833 0.0000  plane waves:    6661
 k-point  10 :   0.2500 0.0833 0.0000  plane waves:    6686
 k-point  11 :   0.3333 0.0833 0.0000  plane waves:    6699
 k-point  12 :   0.4167 0.0833 0.0000  plane waves:    6709
 k-point  13 :   0.1667 0.1667 0.0000  plane waves:    6697
 k-point  14 :   0.2500 0.1667 0.0000  plane waves:    6696
 k-point  15 :   0.3333 0.1667 0.0000  plane waves:    6706
 k-point  16 :   0.4167 0.1667 0.0000  plane waves:    6705
 k-point  17 :   0.2500 0.2500 0.0000  plane waves:    6709
 k-point  18 :   0.3333 0.2500 0.0000  plane waves:    6697
 k-point  19 :   0.3333 0.3333 0.0000  plane waves:    6681

 maximum and minimum number of plane-waves per node :      6709     6620

 maximum number of plane-waves:      6709
 maximum index in each direction: 
   IXMAX=    6   IYMAX=    6   IZMAX=   37
   IXMIN=   -7   IYMIN=   -7   IZMIN=  -37


 serial   3D FFT for wavefunctions
 parallel 3D FFT for charge:
    minimum data exchange during FFTs selected (reduces bandwidth)

 
 Radii for the augmentation spheres in the non-local exchange
 for species   1 augmentation radius   1.171 (default was   1.171)
 error exchange integrals (PW-AE in eV) (mean, max) 0.316 2.168 density error[0,qmax] 0.0305
 for species   2 augmentation radius   0.959 (default was   0.959)
 error exchange integrals (PW-AE in eV) (mean, max) 0.158 0.446 density error[0,qmax] 0.0073
 for species   3 augmentation radius   1.018 (default was   1.018)
 error exchange integrals (PW-AE in eV) (mean, max) 0.221 0.763 density error[0,qmax] 0.0082
 Maximum index for augmentation-charges in exchange          1489
  SETUP_FOCK is finished

 total amount of memory used by VASP MPI-rank0   164710. kBytes
=======================================================================

   base      :      30000. kBytes
   nonl-proj :      55736. kBytes
   fftplans  :       2618. kBytes
   grid      :       7225. kBytes
   one-center:         93. kBytes
   HF        :        388. kBytes
   nonlr-proj:       2578. kBytes
   wavefun   :      66072. kBytes
 
     INWAV:  cpu time      0.5268: real time      0.5320
 Broyden mixing: mesh for mixing (old mesh)
   NGX = 13   NGY = 13   NGZ = 75
  (NGX  = 48   NGY  = 48   NGZ  =240)
  gives a total of  12675 points

 charge density for first step will be calculated from the start-wavefunctions


--------------------------------------------------------------------------------------------------------


 Maximum index for augmentation-charges          1421 (set IRDMAX)


--------------------------------------------------------------------------------------------------------


 initial charge from wavefunction
    FEWALD:  cpu time      0.0002: real time      0.0002
 available memory per node:    1.44 GB, setting MAXMEM to    1479

 The Fermi energy was updated, please check that it is located mid-gap
 values below the HOMO (VB) or above the LUMO (CB) will cause erroneous energies
 E-fermi :  -0.3092

 Response functions by sum over occupied states:
 ===============================================
   NOMEGA  =    96    number of frequencies
   NOMEGAR =    96    number of frequencies along real axis
   OMEGAMAX=  23.83   maximum frequency
   OMEGAMIN=   0.59   minimum frequency
   OMEGATL = 133.39   maximum frequency of tail
   CSHIFT  =  0.323   complex shift used in evaluation of response functions


 Energies iw= 
 ============
    0.000    0.000    0.512    0.000    1.023    0.000    1.534    0.000
    2.043    0.000    2.550    0.000    3.055    0.000    3.558    0.000
    4.058    0.000    4.554    0.000    5.047    0.000    5.536    0.000
    6.021    0.000    6.502    0.000    6.979    0.000    7.452    0.000
    7.921    0.000    8.386    0.000    8.846    0.000    9.303    0.000
    9.756    0.000   10.205    0.000   10.650    0.000   11.092    0.000
   11.531    0.000   11.968    0.000   12.401    0.000   12.833    0.000
   13.262    0.000   13.690    0.000   14.116    0.000   14.541    0.000
   14.966    0.000   15.390    0.000   15.814    0.000   16.239    0.000
   16.664    0.000   17.091    0.000   17.520    0.000   17.950    0.000
   18.383    0.000   18.820    0.000   19.260    0.000   19.704    0.000
   20.152    0.000   20.606    0.000   21.066    0.000   21.532    0.000
   22.006    0.000   22.487    0.000   22.977    0.000   23.476    0.000
   23.986    0.000   24.507    0.000   25.041    0.000   25.588    0.000
   26.149    0.000   26.726    0.000   27.320    0.000   27.933    0.000
   28.566    0.000   29.222    0.000   29.901    0.000   30.606    0.000
   31.339    0.000   32.104    0.000   32.902    0.000   33.737    0.000
   34.613    0.000   35.533    0.000   36.502    0.000   37.525    0.000
   38.607    0.000   39.755    0.000   40.977    0.000   42.279    0.000
   43.672    0.000   45.167    0.000   46.777    0.000   48.515    0.000
   50.400    0.000   52.452    0.000   54.696    0.000   57.159    0.000
   59.878    0.000   62.895    0.000   66.262    0.000   70.045    0.000
   74.326    0.000   79.211    0.000   84.835    0.000   91.380    0.000
   99.090    0.000  108.302    0.000  119.498    0.000  133.387    0.000
 

IMPORTANT INFORMATION: All symmetrisations will be switched off!
NOSYMM: (Re-)initialisation of all symmetry stuff for point group C_1.

 
 KPOINTS: K-Spacing Value to Generate K-Mesh: 0.02

Automatic generation of k-mesh.
 Grid dimensions read from file:
 generate k-points for:   12   12    1

 Generating k-lattice:

  Cartesian coordinates                     Fractional coordinates (reciprocal lattice)
     0.020686211  0.011943186  0.000000000     0.083333333  0.000000000  0.000000000
    -0.000000002  0.023886376  0.000000001    -0.000000000  0.083333333  0.000000000
     0.000000000  0.000000001  0.045568327     0.000000000  0.000000000  1.000000000

  Length of vectors
     0.023886377  0.023886376  0.045568327

  Shift w.r.t. Gamma in fractional coordinates (k-lattice)
     0.000000000  0.000000000  0.000000000

 
 Subroutine IBZKPT returns following result:
 ===========================================
 
 Found    144 irreducible k-points:
 
 Following reciprocal coordinates:
            Coordinates               Weight
  0.000000  0.000000  0.000000      1.000000
  0.083333  0.000000  0.000000      1.000000
 -0.083333  0.000000  0.000000      1.000000
  0.000000  0.083333  0.000000      1.000000
  0.000000 -0.083333  0.000000      1.000000
 -0.083333  0.083333  0.000000      1.000000
  0.083333 -0.083333  0.000000      1.000000
  0.166667  0.000000  0.000000      1.000000
 -0.166667  0.000000  0.000000      1.000000
  0.000000  0.166667  0.000000      1.000000
  0.000000 -0.166667  0.000000      1.000000
 -0.166667  0.166667  0.000000      1.000000
  0.166667 -0.166667  0.000000      1.000000
  0.250000  0.000000  0.000000      1.000000
 -0.250000  0.000000  0.000000      1.000000
  0.000000  0.250000  0.000000      1.000000
  0.000000 -0.250000  0.000000      1.000000
 -0.250000  0.250000  0.000000      1.000000
  0.250000 -0.250000  0.000000      1.000000
  0.333333  0.000000  0.000000      1.000000
 -0.333333  0.000000  0.000000      1.000000
  0.000000  0.333333  0.000000      1.000000
  0.000000 -0.333333  0.000000      1.000000
 -0.333333  0.333333  0.000000      1.000000
  0.333333 -0.333333  0.000000      1.000000
  0.416667  0.000000  0.000000      1.000000
 -0.416667  0.000000  0.000000      1.000000
  0.000000  0.416667  0.000000      1.000000
  0.000000 -0.416667  0.000000      1.000000
 -0.416667  0.416667  0.000000      1.000000
  0.416667 -0.416667  0.000000      1.000000
  0.500000  0.000000  0.000000      1.000000
  0.000000  0.500000  0.000000      1.000000
  0.500000  0.500000  0.000000      1.000000
  0.083333  0.083333  0.000000      1.000000
 -0.083333 -0.083333  0.000000      1.000000
 -0.083333  0.166667  0.000000      1.000000
  0.083333 -0.166667  0.000000      1.000000
 -0.166667  0.083333  0.000000      1.000000
  0.166667 -0.083333  0.000000      1.000000
  0.166667  0.083333  0.000000      1.000000
 -0.166667 -0.083333  0.000000      1.000000
 -0.083333  0.250000  0.000000      1.000000
  0.083333 -0.250000  0.000000      1.000000
 -0.250000  0.166667  0.000000      1.000000
  0.250000 -0.166667  0.000000      1.000000
 -0.166667  0.250000  0.000000      1.000000
  0.166667 -0.250000  0.000000      1.000000
  0.083333  0.166667  0.000000      1.000000
 -0.083333 -0.166667  0.000000      1.000000
  0.250000 -0.083333  0.000000      1.000000
 -0.250000  0.083333  0.000000      1.000000
  0.250000  0.083333  0.000000      1.000000
 -0.250000 -0.083333  0.000000      1.000000
 -0.083333  0.333333  0.000000      1.000000
  0.083333 -0.333333  0.000000      1.000000
 -0.333333  0.250000  0.000000      1.000000
  0.333333 -0.250000  0.000000      1.000000
 -0.250000  0.333333  0.000000      1.000000
  0.250000 -0.333333  0.000000      1.000000
  0.083333  0.250000  0.000000      1.000000
 -0.083333 -0.250000  0.000000      1.000000
  0.333333 -0.083333  0.000000      1.000000
 -0.333333  0.083333  0.000000      1.000000
  0.333333  0.083333  0.000000      1.000000
 -0.333333 -0.083333  0.000000      1.000000
 -0.083333  0.416667  0.000000      1.000000
  0.083333 -0.416667  0.000000      1.000000
 -0.416667  0.333333  0.000000      1.000000
  0.416667 -0.333333  0.000000      1.000000
 -0.333333  0.416667  0.000000      1.000000
  0.333333 -0.416667  0.000000      1.000000
  0.083333  0.333333  0.000000      1.000000
 -0.083333 -0.333333  0.000000      1.000000
  0.416667 -0.083333  0.000000      1.000000
 -0.416667  0.083333  0.000000      1.000000
  0.416667  0.083333  0.000000      1.000000
 -0.416667 -0.083333  0.000000      1.000000
 -0.083333  0.500000  0.000000      1.000000
  0.083333  0.500000  0.000000      1.000000
  0.500000  0.416667  0.000000      1.000000
  0.500000 -0.416667  0.000000      1.000000
 -0.416667  0.500000  0.000000      1.000000
  0.416667  0.500000  0.000000      1.000000
  0.083333  0.416667  0.000000      1.000000
 -0.083333 -0.416667  0.000000      1.000000
  0.500000 -0.083333  0.000000      1.000000
  0.500000  0.083333  0.000000      1.000000
  0.166667  0.166667  0.000000      1.000000
 -0.166667 -0.166667  0.000000      1.000000
 -0.166667  0.333333  0.000000      1.000000
  0.166667 -0.333333  0.000000      1.000000
 -0.333333  0.166667  0.000000      1.000000
  0.333333 -0.166667  0.000000      1.000000
  0.250000  0.166667  0.000000      1.000000
 -0.250000 -0.166667  0.000000      1.000000
 -0.166667  0.416667  0.000000      1.000000
  0.166667 -0.416667  0.000000      1.000000
 -0.416667  0.250000  0.000000      1.000000
  0.416667 -0.250000  0.000000      1.000000
 -0.250000  0.416667  0.000000      1.000000
  0.250000 -0.416667  0.000000      1.000000
  0.166667  0.250000  0.000000      1.000000
 -0.166667 -0.250000  0.000000      1.000000
  0.416667 -0.166667  0.000000      1.000000
 -0.416667  0.166667  0.000000      1.000000
  0.333333  0.166667  0.000000      1.000000
 -0.333333 -0.166667  0.000000      1.000000
 -0.166667  0.500000  0.000000      1.000000
  0.166667  0.500000  0.000000      1.000000
  0.500000  0.333333  0.000000      1.000000
  0.500000 -0.333333  0.000000      1.000000
 -0.333333  0.500000  0.000000      1.000000
  0.333333  0.500000  0.000000      1.000000
  0.166667  0.333333  0.000000      1.000000
 -0.166667 -0.333333  0.000000      1.000000
  0.500000 -0.166667  0.000000      1.000000
  0.500000  0.166667  0.000000      1.000000
  0.416667  0.166667  0.000000      1.000000
 -0.416667 -0.166667  0.000000      1.000000
 -0.166667 -0.416667  0.000000      1.000000
  0.166667  0.416667  0.000000      1.000000
  0.416667  0.416667  0.000000      1.000000
 -0.416667 -0.416667  0.000000      1.000000
  0.250000  0.250000  0.000000      1.000000
 -0.250000 -0.250000  0.000000      1.000000
 -0.250000  0.500000  0.000000      1.000000
  0.250000  0.500000  0.000000      1.000000
  0.500000  0.250000  0.000000      1.000000
  0.500000 -0.250000  0.000000      1.000000
  0.333333  0.250000  0.000000      1.000000
 -0.333333 -0.250000  0.000000      1.000000
 -0.250000 -0.416667  0.000000      1.000000
  0.250000  0.416667  0.000000      1.000000
  0.416667  0.333333  0.000000      1.000000
 -0.416667 -0.333333  0.000000      1.000000
 -0.333333 -0.416667  0.000000      1.000000
  0.333333  0.416667  0.000000      1.000000
  0.250000  0.333333  0.000000      1.000000
 -0.250000 -0.333333  0.000000      1.000000
 -0.416667 -0.250000  0.000000      1.000000
  0.416667  0.250000  0.000000      1.000000
  0.333333  0.333333  0.000000      1.000000
 -0.333333 -0.333333  0.000000      1.000000
 
 Following cartesian coordinates:
            Coordinates               Weight
  0.000000  0.000000  0.000000      1.000000
  0.020686  0.011943  0.000000      1.000000
 -0.020686 -0.011943 -0.000000      1.000000
 -0.000000  0.023886  0.000000      1.000000
  0.000000 -0.023886 -0.000000      1.000000
 -0.020686  0.011943  0.000000      1.000000
  0.020686 -0.011943 -0.000000      1.000000
  0.041372  0.023886  0.000000      1.000000
 -0.041372 -0.023886 -0.000000      1.000000
 -0.000000  0.047773  0.000000      1.000000
  0.000000 -0.047773 -0.000000      1.000000
 -0.041372  0.023886  0.000000      1.000000
  0.041372 -0.023886 -0.000000      1.000000
  0.062059  0.035830  0.000000      1.000000
 -0.062059 -0.035830 -0.000000      1.000000
 -0.000000  0.071659  0.000000      1.000000
  0.000000 -0.071659 -0.000000      1.000000
 -0.062059  0.035830  0.000000      1.000000
  0.062059 -0.035830 -0.000000      1.000000
  0.082745  0.047773  0.000000      1.000000
 -0.082745 -0.047773 -0.000000      1.000000
 -0.000000  0.095546  0.000000      1.000000
  0.000000 -0.095546 -0.000000      1.000000
 -0.082745  0.047773  0.000000      1.000000
  0.082745 -0.047773 -0.000000      1.000000
  0.103431  0.059716  0.000000      1.000000
 -0.103431 -0.059716 -0.000000      1.000000
 -0.000000  0.119432  0.000000      1.000000
  0.000000 -0.119432 -0.000000      1.000000
 -0.103431  0.059716  0.000000      1.000000
  0.103431 -0.059716 -0.000000      1.000000
  0.124117  0.071659  0.000000      1.000000
 -0.000000  0.143318  0.000000      1.000000
  0.124117  0.214977  0.000000      1.000000
  0.020686  0.035830  0.000000      1.000000
 -0.020686 -0.035830 -0.000000      1.000000
 -0.020686  0.035830  0.000000      1.000000
  0.020686 -0.035830 -0.000000      1.000000
 -0.041372  0.000000 -0.000000      1.000000
  0.041372 -0.000000  0.000000      1.000000
  0.041372  0.047773  0.000000      1.000000
 -0.041372 -0.047773 -0.000000      1.000000
 -0.020686  0.059716  0.000000      1.000000
  0.020686 -0.059716 -0.000000      1.000000
 -0.062059  0.011943 -0.000000      1.000000
  0.062059 -0.011943  0.000000      1.000000
 -0.041372  0.047773  0.000000      1.000000
  0.041372 -0.047773 -0.000000      1.000000
  0.020686  0.059716  0.000000      1.000000
 -0.020686 -0.059716 -0.000000      1.000000
  0.062059  0.011943  0.000000      1.000000
 -0.062059 -0.011943 -0.000000      1.000000
  0.062059  0.059716  0.000000      1.000000
 -0.062059 -0.059716 -0.000000      1.000000
 -0.020686  0.083602  0.000000      1.000000
  0.020686 -0.083602 -0.000000      1.000000
 -0.082745  0.023886  0.000000      1.000000
  0.082745 -0.023886 -0.000000      1.000000
 -0.062059  0.059716  0.000000      1.000000
  0.062059 -0.059716 -0.000000      1.000000
  0.020686  0.083602  0.000000      1.000000
 -0.020686 -0.083602 -0.000000      1.000000
  0.082745  0.023886  0.000000      1.000000
 -0.082745 -0.023886 -0.000000      1.000000
  0.082745  0.071659  0.000000      1.000000
 -0.082745 -0.071659 -0.000000      1.000000
 -0.020686  0.107489  0.000000      1.000000
  0.020686 -0.107489 -0.000000      1.000000
 -0.103431  0.035830  0.000000      1.000000
  0.103431 -0.035830 -0.000000      1.000000
 -0.082745  0.071659  0.000000      1.000000
  0.082745 -0.071659 -0.000000      1.000000
  0.020686  0.107489  0.000000      1.000000
 -0.020686 -0.107489 -0.000000      1.000000
  0.103431  0.035830  0.000000      1.000000
 -0.103431 -0.035830 -0.000000      1.000000
  0.103431  0.083602  0.000000      1.000000
 -0.103431 -0.083602 -0.000000      1.000000
 -0.020686  0.131375  0.000000      1.000000
  0.020686  0.155261  0.000000      1.000000
  0.124117  0.191091  0.000000      1.000000
  0.124117 -0.047773 -0.000000      1.000000
 -0.103431  0.083602  0.000000      1.000000
  0.103431  0.203034  0.000000      1.000000
  0.020686  0.131375  0.000000      1.000000
 -0.020686 -0.131375 -0.000000      1.000000
  0.124117  0.047773  0.000000      1.000000
  0.124117  0.095545  0.000000      1.000000
  0.041372  0.071659  0.000000      1.000000
 -0.041372 -0.071659 -0.000000      1.000000
 -0.041372  0.071659  0.000000      1.000000
  0.041372 -0.071659 -0.000000      1.000000
 -0.082745  0.000000 -0.000000      1.000000
  0.082745 -0.000000  0.000000      1.000000
  0.062059  0.083602  0.000000      1.000000
 -0.062059 -0.083602 -0.000000      1.000000
 -0.041372  0.095546  0.000000      1.000000
  0.041372 -0.095546 -0.000000      1.000000
 -0.103431  0.011943 -0.000000      1.000000
  0.103431 -0.011943  0.000000      1.000000
 -0.062059  0.083602  0.000000      1.000000
  0.062059 -0.083602 -0.000000      1.000000
  0.041372  0.095545  0.000000      1.000000
 -0.041372 -0.095545 -0.000000      1.000000
  0.103431  0.011943  0.000000      1.000000
 -0.103431 -0.011943 -0.000000      1.000000
  0.082745  0.095545  0.000000      1.000000
 -0.082745 -0.095545 -0.000000      1.000000
 -0.041372  0.119432  0.000000      1.000000
  0.041372  0.167205  0.000000      1.000000
  0.124117  0.167205  0.000000      1.000000
  0.124117 -0.023886  0.000000      1.000000
 -0.082745  0.095546  0.000000      1.000000
  0.082745  0.191091  0.000000      1.000000
  0.041372  0.119432  0.000000      1.000000
 -0.041372 -0.119432 -0.000000      1.000000
  0.124117  0.023886  0.000000      1.000000
  0.124117  0.119432  0.000000      1.000000
  0.103431  0.107489  0.000000      1.000000
 -0.103431 -0.107489 -0.000000      1.000000
 -0.041372 -0.143318 -0.000000      1.000000
  0.041372  0.143318  0.000000      1.000000
  0.103431  0.179148  0.000000      1.000000
 -0.103431 -0.179148 -0.000000      1.000000
  0.062059  0.107489  0.000000      1.000000
 -0.062059 -0.107489 -0.000000      1.000000
 -0.062059  0.107489  0.000000      1.000000
  0.062059  0.179148  0.000000      1.000000
  0.124117  0.143318  0.000000      1.000000
  0.124117 -0.000000  0.000000      1.000000
  0.082745  0.119432  0.000000      1.000000
 -0.082745 -0.119432 -0.000000      1.000000
 -0.062059 -0.155261 -0.000000      1.000000
  0.062059  0.155261  0.000000      1.000000
  0.103431  0.155261  0.000000      1.000000
 -0.103431 -0.155261 -0.000000      1.000000
 -0.082745 -0.167205 -0.000000      1.000000
  0.082745  0.167205  0.000000      1.000000
  0.062059  0.131375  0.000000      1.000000
 -0.062059 -0.131375 -0.000000      1.000000
 -0.103431 -0.131375 -0.000000      1.000000
  0.103431  0.131375  0.000000      1.000000
  0.082745  0.143318  0.000000      1.000000
 -0.082745 -0.143318 -0.000000      1.000000
 
 files read and symmetry switched off, memory is now:
 total amount of memory used by VASP MPI-rank0  1078447. kBytes
=======================================================================

   base      :      30000. kBytes
   nonl-proj :     418184. kBytes
   fftplans  :       2618. kBytes
   grid      :       7225. kBytes
   one-center:         93. kBytes
   HF        :        388. kBytes
   nonlr-proj:       2578. kBytes
   wavefun   :     500760. kBytes
   fock_wrk  :     116601. kBytes
 
 Basis sets for responsefunctions:
 =================================
 k-point   1 :   0.0000 0.0000 0.0000  plane waves:    3685
 k-point   2 :   0.0833 0.0000 0.0000  plane waves:    3648
 k-point   3 :   0.1667 0.0000 0.0000  plane waves:    3648
 k-point   4 :   0.2500 0.0000 0.0000  plane waves:    3646
 k-point   5 :   0.3333 0.0000 0.0000  plane waves:    3638
 k-point   6 :   0.4167 0.0000 0.0000  plane waves:    3634
 k-point   7 :   0.5000 0.0000 0.0000  plane waves:    3628
 k-point   8 :   0.0833 0.0833 0.0000  plane waves:    3651
 k-point   9 :   0.1667 0.0833 0.0000  plane waves:    3645
 k-point  10 :   0.2500 0.0833 0.0000  plane waves:    3647
 k-point  11 :   0.3333 0.0833 0.0000  plane waves:    3637
 k-point  12 :   0.4167 0.0833 0.0000  plane waves:    3642
 k-point  13 :   0.1667 0.1667 0.0000  plane waves:    3652
 k-point  14 :   0.2500 0.1667 0.0000  plane waves:    3625
 k-point  15 :   0.3333 0.1667 0.0000  plane waves:    3624
 k-point  16 :   0.4167 0.1667 0.0000  plane waves:    3636
 k-point  17 :   0.2500 0.2500 0.0000  plane waves:    3622
 k-point  18 :   0.3333 0.2500 0.0000  plane waves:    3619
 k-point  19 :   0.3333 0.3333 0.0000  plane waves:    3594
 k-point  20 :  -0.0833-0.0000-0.0000  plane waves:    3648
 k-point  21 :  -0.0000 0.0833-0.0000  plane waves:    3648
 k-point  22 :   0.0000-0.0833 0.0000  plane waves:    3648
 k-point  23 :  -0.0833 0.0833 0.0000  plane waves:    3648
 k-point  24 :   0.0833-0.0833-0.0000  plane waves:    3648
 k-point  25 :  -0.1667-0.0000-0.0000  plane waves:    3648
 k-point  26 :  -0.0000 0.1667-0.0000  plane waves:    3648
 k-point  27 :   0.0000-0.1667 0.0000  plane waves:    3648
 k-point  28 :  -0.1667 0.1667 0.0000  plane waves:    3648
 k-point  29 :   0.1667-0.1667-0.0000  plane waves:    3648
 k-point  30 :  -0.2500-0.0000-0.0000  plane waves:    3646
 k-point  31 :  -0.0000 0.2500-0.0000  plane waves:    3646
 k-point  32 :   0.0000-0.2500 0.0000  plane waves:    3646
 k-point  33 :  -0.2500 0.2500 0.0000  plane waves:    3646
 k-point  34 :   0.2500-0.2500-0.0000  plane waves:    3646
 k-point  35 :  -0.3333-0.0000-0.0000  plane waves:    3638
 k-point  36 :  -0.0000 0.3333-0.0000  plane waves:    3638
 k-point  37 :   0.0000-0.3333 0.0000  plane waves:    3638
 k-point  38 :  -0.3333 0.3333 0.0000  plane waves:    3638
 k-point  39 :   0.3333-0.3333-0.0000  plane waves:    3638
 k-point  40 :  -0.4167-0.0000-0.0000  plane waves:    3634
 k-point  41 :  -0.0000 0.4167-0.0000  plane waves:    3634
 k-point  42 :   0.0000-0.4167 0.0000  plane waves:    3634
 k-point  43 :  -0.4167 0.4167 0.0000  plane waves:    3634
 k-point  44 :   0.4167-0.4167-0.0000  plane waves:    3634
 k-point  45 :   0.0000-0.5000 0.0000  plane waves:    3628
 k-point  46 :  -0.5000 0.5000 0.0000  plane waves:    3628
 k-point  47 :  -0.0833-0.0833-0.0000  plane waves:    3651
 k-point  48 :  -0.0833 0.1667-0.0000  plane waves:    3651
 k-point  49 :   0.0833-0.1667 0.0000  plane waves:    3651
 k-point  50 :  -0.1667 0.0833 0.0000  plane waves:    3651
 k-point  51 :   0.1667-0.0833-0.0000  plane waves:    3651
 k-point  52 :  -0.1667-0.0833-0.0000  plane waves:    3645
 k-point  53 :  -0.0833 0.2500-0.0000  plane waves:    3645
 k-point  54 :   0.0833-0.2500 0.0000  plane waves:    3645
 k-point  55 :  -0.2500 0.1667 0.0000  plane waves:    3645
 k-point  56 :   0.2500-0.1667-0.0000  plane waves:    3645
 k-point  57 :  -0.1667 0.2500 0.0000  plane waves:    3645
 k-point  58 :   0.1667-0.2500-0.0000  plane waves:    3645
 k-point  59 :   0.0833 0.1667-0.0000  plane waves:    3645
 k-point  60 :  -0.0833-0.1667 0.0000  plane waves:    3645
 k-point  61 :   0.2500-0.0833 0.0000  plane waves:    3645
 k-point  62 :  -0.2500 0.0833-0.0000  plane waves:    3645
 k-point  63 :  -0.2500-0.0833-0.0000  plane waves:    3647
 k-point  64 :  -0.0833 0.3333-0.0000  plane waves:    3647
 k-point  65 :   0.0833-0.3333 0.0000  plane waves:    3647
 k-point  66 :  -0.3333 0.2500 0.0000  plane waves:    3647
 k-point  67 :   0.3333-0.2500-0.0000  plane waves:    3647
 k-point  68 :  -0.2500 0.3333 0.0000  plane waves:    3647
 k-point  69 :   0.2500-0.3333-0.0000  plane waves:    3647
 k-point  70 :   0.0833 0.2500-0.0000  plane waves:    3647
 k-point  71 :  -0.0833-0.2500 0.0000  plane waves:    3647
 k-point  72 :   0.3333-0.0833 0.0000  plane waves:    3647
 k-point  73 :  -0.3333 0.0833-0.0000  plane waves:    3647
 k-point  74 :  -0.3333-0.0833-0.0000  plane waves:    3637
 k-point  75 :  -0.0833 0.4167-0.0000  plane waves:    3637
 k-point  76 :   0.0833-0.4167 0.0000  plane waves:    3637
 k-point  77 :  -0.4167 0.3333 0.0000  plane waves:    3637
 k-point  78 :   0.4167-0.3333-0.0000  plane waves:    3637
 k-point  79 :  -0.3333 0.4167 0.0000  plane waves:    3637
 k-point  80 :   0.3333-0.4167-0.0000  plane waves:    3637
 k-point  81 :   0.0833 0.3333-0.0000  plane waves:    3637
 k-point  82 :  -0.0833-0.3333 0.0000  plane waves:    3637
 k-point  83 :   0.4167-0.0833 0.0000  plane waves:    3637
 k-point  84 :  -0.4167 0.0833-0.0000  plane waves:    3637
 k-point  85 :  -0.4167-0.0833-0.0000  plane waves:    3642
 k-point  86 :  -0.0833 0.5000-0.0000  plane waves:    3642
 k-point  87 :   0.0833-0.5000 0.0000  plane waves:    3642
 k-point  88 :  -0.5000 0.4167 0.0000  plane waves:    3642
 k-point  89 :   0.5000-0.4167-0.0000  plane waves:    3642
 k-point  90 :  -0.4167 0.5000 0.0000  plane waves:    3642
 k-point  91 :   0.4167-0.5000-0.0000  plane waves:    3642
 k-point  92 :   0.0833 0.4167-0.0000  plane waves:    3642
 k-point  93 :  -0.0833-0.4167 0.0000  plane waves:    3642
 k-point  94 :   0.5000-0.0833 0.0000  plane waves:    3642
 k-point  95 :  -0.5000 0.0833-0.0000  plane waves:    3642
 k-point  96 :  -0.1667-0.1667-0.0000  plane waves:    3652
 k-point  97 :  -0.1667 0.3333-0.0000  plane waves:    3652
 k-point  98 :   0.1667-0.3333 0.0000  plane waves:    3652
 k-point  99 :  -0.3333 0.1667 0.0000  plane waves:    3652
 k-point 100 :   0.3333-0.1667-0.0000  plane waves:    3652
 k-point 101 :  -0.2500-0.1667-0.0000  plane waves:    3625
 k-point 102 :  -0.1667 0.4167-0.0000  plane waves:    3625
 k-point 103 :   0.1667-0.4167 0.0000  plane waves:    3625
 k-point 104 :  -0.4167 0.2500 0.0000  plane waves:    3625
 k-point 105 :   0.4167-0.2500-0.0000  plane waves:    3625
 k-point 106 :  -0.2500 0.4167 0.0000  plane waves:    3625
 k-point 107 :   0.2500-0.4167-0.0000  plane waves:    3625
 k-point 108 :   0.1667 0.2500-0.0000  plane waves:    3625
 k-point 109 :  -0.1667-0.2500 0.0000  plane waves:    3625
 k-point 110 :   0.4167-0.1667 0.0000  plane waves:    3625
 k-point 111 :  -0.4167 0.1667-0.0000  plane waves:    3625
 k-point 112 :  -0.3333-0.1667-0.0000  plane waves:    3624
 k-point 113 :  -0.1667 0.5000-0.0000  plane waves:    3624
 k-point 114 :   0.1667-0.5000 0.0000  plane waves:    3624
 k-point 115 :  -0.5000 0.3333 0.0000  plane waves:    3624
 k-point 116 :   0.5000-0.3333-0.0000  plane waves:    3624
 k-point 117 :  -0.3333 0.5000 0.0000  plane waves:    3624
 k-point 118 :   0.3333-0.5000-0.0000  plane waves:    3624
 k-point 119 :   0.1667 0.3333-0.0000  plane waves:    3624
 k-point 120 :  -0.1667-0.3333 0.0000  plane waves:    3624
 k-point 121 :   0.5000-0.1667 0.0000  plane waves:    3624
 k-point 122 :  -0.5000 0.1667-0.0000  plane waves:    3624
 k-point 123 :  -0.4167-0.1667-0.0000  plane waves:    3636
 k-point 124 :  -0.1667 0.5833-0.0000  plane waves:    3636
 k-point 125 :   0.1667-0.5833 0.0000  plane waves:    3636
 k-point 126 :  -0.5833 0.4167 0.0000  plane waves:    3636
 k-point 127 :   0.5833-0.4167-0.0000  plane waves:    3636
 k-point 128 :  -0.2500-0.2500-0.0000  plane waves:    3622
 k-point 129 :  -0.2500 0.5000-0.0000  plane waves:    3622
 k-point 130 :   0.2500-0.5000 0.0000  plane waves:    3622
 k-point 131 :  -0.5000 0.2500 0.0000  plane waves:    3622
 k-point 132 :   0.5000-0.2500-0.0000  plane waves:    3622
 k-point 133 :  -0.3333-0.2500-0.0000  plane waves:    3619
 k-point 134 :  -0.2500 0.5833-0.0000  plane waves:    3619
 k-point 135 :   0.2500-0.5833 0.0000  plane waves:    3619
 k-point 136 :  -0.5833 0.3333 0.0000  plane waves:    3619
 k-point 137 :   0.5833-0.3333-0.0000  plane waves:    3619
 k-point 138 :  -0.3333 0.5833 0.0000  plane waves:    3619
 k-point 139 :   0.3333-0.5833-0.0000  plane waves:    3619
 k-point 140 :   0.2500 0.3333-0.0000  plane waves:    3619
 k-point 141 :  -0.2500-0.3333 0.0000  plane waves:    3619
[...]
     47       9.0203       9.5062      -7.0741      -7.6980      -3.2520       0.7788       0.0000      -0.3748
     48       9.1368       9.3876      -5.3477      -5.6541      -2.3934       0.8186       0.0000      -0.2732

 k-point  17 :       0.2500    0.2500    0.0000
  band No.  KS-energies  QP-energies   sigma(KS)   V_xc(KS)     V^pw_x(r,r')   Z            occupation Imag(sigma)

      1     -31.8689     -33.2073     -17.0082     -14.7245     -23.5153       0.5861       2.0000       0.4985
      2     -31.8632     -33.2028     -17.0156     -14.7222     -23.5151       0.5841       2.0000       0.4848
      3     -31.8549     -33.1938     -17.0255     -14.7289     -23.5107       0.5830       2.0000       0.4309
      4     -31.8512     -33.2078     -17.0308     -14.7378     -23.5050       0.5916       2.0000       0.4064
      5     -31.8361     -33.1774     -17.0335     -14.7374     -23.5013       0.5842       2.0000       0.4190
      6     -31.8334     -33.1741     -17.0304     -14.7387     -23.5023       0.5850       2.0000       0.4167
      7     -16.2015     -16.5185     -14.6250     -14.1205     -22.1913       0.6282       2.0000       1.1616
      8     -16.2015     -16.5185     -14.6250     -14.1205     -22.1913       0.6282       2.0000       1.1616
      9     -11.1085     -11.4468     -12.7043     -12.1931     -18.7287       0.6618       2.0000       0.9568
     10      -9.9263     -10.3115     -13.0237     -12.4577     -18.5430       0.6805       2.0000       0.8347
     11      -5.9969      -6.5483     -12.0397     -11.2514     -15.3483       0.6995       2.0000       0.3271
     12      -5.4101      -6.1409     -12.5366     -11.4900     -15.5553       0.6983       2.0000       0.1887
     13      -5.2651      -5.6844     -11.7896     -11.1930     -14.9093       0.7028       2.0000       0.3085
     14      -4.8993      -5.5695     -12.8023     -11.8477     -15.7469       0.7020       2.0000       0.1751
     15      -4.8901      -5.5188     -12.6751     -11.7815     -15.5813       0.7036       2.0000       0.1816
     16      -4.7248      -5.4296     -13.0191     -12.0167     -15.8603       0.7031       2.0000       0.1414
     17      -4.6067      -5.1461     -12.8818     -12.1106     -15.7765       0.6995       2.0000       0.1849
     18      -3.7493      -4.0812     -12.6833     -12.2247     -15.2928       0.7236       2.0000       0.2119
     19      -3.7311      -4.1835     -12.8167     -12.1892     -15.4343       0.7210       2.0000       0.1752
     20      -1.7568      -1.9168     -12.0707     -11.8463     -13.5141       0.7133       2.0000       0.0871
     21      -1.5682      -1.7016     -12.2403     -12.0544     -13.4902       0.7172       2.0000       0.0771
     22      -0.8990      -0.9809     -12.5230     -12.4097     -13.5114       0.7229       2.0000       0.0567
     23       0.6408       1.3179     -10.8534     -11.7910      -7.4259       0.7222       0.0000      -0.0930
     24       0.9001       1.6104     -11.1868     -12.1854      -7.6090       0.7113       0.0000      -0.1083
     25       1.4717       2.1700     -10.9914     -12.0005      -6.6932       0.6920       0.0000      -0.1518
     26       1.6104       2.3384     -11.3029     -12.3663      -6.9224       0.6845       0.0000      -0.1687
     27       2.8116       3.5031     -10.6873     -11.6446      -6.5672       0.7223       0.0000      -0.1864
     28       2.8589       3.5592     -10.5257     -11.4946      -6.2864       0.7227       0.0000      -0.1979
     29       3.0611       3.8189     -11.2656     -12.3400      -6.8835       0.7053       0.0000      -0.2003
     30       3.4416       4.2379     -11.1728     -12.2946      -6.7269       0.7098       0.0000      -0.2282
     31       3.9439       4.6484     -10.2921     -11.2781      -5.8119       0.7146       0.0000      -0.2728
     32       3.9850       4.6386     -10.3916     -11.2957      -6.0144       0.7230       0.0000      -0.2670
     33       4.9841       5.6952      -9.6684     -10.6328      -5.2334       0.7374       0.0000      -0.2818
     34       5.4388       5.9198      -7.7653      -8.3868      -3.9545       0.7741       0.0000      -0.2440
     35       5.7245       6.1080      -6.4708      -6.9563      -3.2834       0.7900       0.0000      -0.2016
     36       5.8663       6.0833      -4.2081      -4.4721      -1.7717       0.8219       0.0000      -0.1401
     37       6.7123       6.6382      -3.2901      -3.2037      -1.3498       0.8568       0.0000      -0.1063
     38       6.9973       7.4191      -6.5930      -7.1258      -3.1432       0.7915       0.0000      -0.2598
     39       7.1370       7.5939      -6.5263      -7.1109      -3.0115       0.7814       0.0000      -0.2367
     40       7.3451       8.0624      -9.2867     -10.2246      -4.9724       0.7648       0.0000      -0.3660
     41       7.4929       7.8145      -5.5679      -5.9676      -2.5192       0.8048       0.0000      -0.2357
     42       7.7589       8.1728      -7.2580      -7.7845      -3.5512       0.7861       0.0000      -0.2917
     43       8.1846       8.8627      -8.7903      -9.6819      -4.2381       0.7605       0.0000      -0.4846
     44       8.2264       8.6947      -6.5319      -7.1281      -3.0675       0.7854       0.0000      -0.2924
     45       8.3799       8.5758      -4.4509      -4.6879      -1.8787       0.8265       0.0000      -0.1952
     46       8.7943       9.1839      -6.3750      -6.8677      -2.6846       0.7906       0.0000      -0.3752
     47       8.8081       9.2404      -6.6711      -7.2202      -2.9884       0.7871       0.0000      -0.3096
     48       9.3115       9.3344      -3.4265      -3.4533      -1.2842       0.8545       0.0000      -0.1882

 k-point  18 :       0.3333    0.2500    0.0000
  band No.  KS-energies  QP-energies   sigma(KS)   V_xc(KS)     V^pw_x(r,r')   Z            occupation Imag(sigma)

      1     -31.8675     -33.2063     -17.0098     -14.7236     -23.5149       0.5856       2.0000       0.4990
      2     -31.8649     -33.2044     -17.0163     -14.7218     -23.5176       0.5838       2.0000       0.4926
      3     -31.8531     -33.1988     -17.0289     -14.7338     -23.5088       0.5864       2.0000       0.4151
      4     -31.8531     -33.1988     -17.0289     -14.7338     -23.5088       0.5864       2.0000       0.4151
      5     -31.8424     -33.1861     -17.0329     -14.7335     -23.5078       0.5844       2.0000       0.4288
      6     -31.8392     -33.1808     -17.0297     -14.7348     -23.5099       0.5846       2.0000       0.4249
      7     -16.1778     -16.4955     -14.6454     -14.1450     -22.2034       0.6349       2.0000       1.1563
      8     -16.1778     -16.4955     -14.6454     -14.1450     -22.2034       0.6349       2.0000       1.1563
      9     -10.7825     -11.1327     -12.8075     -12.2846     -18.6955       0.6696       2.0000       0.9178
     10     -10.1751     -10.5485     -12.9686     -12.4174     -18.5974       0.6774       2.0000       0.8540
     11      -5.9656      -6.5414     -12.0329     -11.2117     -15.3252       0.7011       2.0000       0.3170
     12      -5.4339      -6.1524     -12.5232     -11.4932     -15.5653       0.6976       2.0000       0.1982
     13      -5.3308      -5.8283     -11.9499     -11.2407     -15.0381       0.7014       2.0000       0.2740
     14      -5.1780      -5.7276     -12.2528     -11.4664     -15.2759       0.6988       2.0000       0.2324
     15      -4.9397      -5.6405     -12.7847     -11.7885     -15.6456       0.7035       2.0000       0.1582
     16      -4.6880      -5.3710     -13.0501     -12.0767     -15.9712       0.7016       2.0000       0.1552
     17      -4.5597      -5.1418     -13.0574     -12.2274     -15.9399       0.7012       2.0000       0.1679
     18      -3.8541      -4.2782     -12.6456     -12.0563     -15.3082       0.7197       2.0000       0.1952
     19      -3.7877      -4.1526     -12.7272     -12.2226     -15.3735       0.7231       2.0000       0.2082
     20      -1.7691      -1.9395     -12.0316     -11.7928     -13.4820       0.7134       2.0000       0.0876
     21      -1.3823      -1.4910     -12.1892     -12.0377     -13.3279       0.7177       2.0000       0.0712
     22      -1.0320      -1.1148     -12.3717     -12.2569     -13.3515       0.7211       2.0000       0.0595
     23       0.6413       1.3158     -10.9258     -11.8626      -7.5264       0.7201       0.0000      -0.0920
     24       1.0664       1.7841     -11.2323     -12.2504      -7.5605       0.7049       0.0000      -0.1145
     25       1.2746       1.9870     -11.0868     -12.1065      -7.1123       0.6987       0.0000      -0.1313
     26       1.4632       2.1842     -11.1690     -12.2121      -6.9881       0.6912       0.0000      -0.1522
     27       3.1154       3.8376     -10.9143     -11.9276      -6.4598       0.7127       0.0000      -0.2220
     28       3.1509       3.8991     -10.9736     -12.0196      -6.4647       0.7153       0.0000      -0.2437
     29       3.2486       4.0455     -11.2385     -12.3608      -6.7832       0.7101       0.0000      -0.2305
     30       3.4630       4.2293     -11.1095     -12.1891      -6.5973       0.7099       0.0000      -0.2472
     31       3.8178       4.4763     -10.7092     -11.6225      -6.2296       0.7209       0.0000      -0.2786
     32       4.0171       4.7276     -10.6944     -11.6932      -6.1017       0.7114       0.0000      -0.3015
     33       4.8771       5.5747      -9.4776     -10.4195      -5.1086       0.7406       0.0000      -0.2683
     34       5.4154       6.0665      -9.8284     -10.7003      -5.3855       0.7468       0.0000      -0.2885
     35       6.1400       6.4407      -5.1157      -5.4885      -2.2239       0.8064       0.0000      -0.1649
     36       6.4062       6.7186      -5.0407      -5.4295      -2.1941       0.8035       0.0000      -0.1742
     37       6.7678       7.2658      -7.0513      -7.6877      -3.4708       0.7825       0.0000      -0.2449
     38       6.8738       7.2832      -6.0814      -6.5971      -2.8331       0.7938       0.0000      -0.2219
     39       7.0938       7.5825      -7.2724      -7.8976      -3.6728       0.7817       0.0000      -0.2515
     40       7.4512       7.4110      -3.1358      -3.0889      -1.2253       0.8568       0.0000      -0.1188
     41       7.5173       7.8076      -4.6581      -5.0136      -1.9741       0.8165       0.0000      -0.1759
     42       8.0344       8.2513      -5.0674      -5.3314      -2.3192       0.8213       0.0000      -0.2061
     43       8.1283       8.6132      -7.0792      -7.7000      -3.3793       0.7811       0.0000      -0.3094
     44       8.2985       8.7896      -7.1860      -7.8161      -3.3260       0.7794       0.0000      -0.3803
     45       8.4265       8.8711      -7.1476      -7.7152      -3.2878       0.7833       0.0000      -0.3623
     46       8.6824       8.5781      -2.7995      -2.6793      -1.0331       0.8679       0.0000      -0.1270
     47       8.7758       8.8117      -3.7795      -3.8219      -1.5126       0.8449       0.0000      -0.1838
     48       9.1173       9.5987      -7.4104      -8.0209      -3.4117       0.7885       0.0000      -0.4420

 k-point  19 :       0.3333    0.3333    0.0000
  band No.  KS-energies  QP-energies   sigma(KS)   V_xc(KS)     V^pw_x(r,r')   Z            occupation Imag(sigma)

      1     -31.8638     -33.2053     -17.0132     -14.7269     -23.5104       0.5868       2.0000       0.4842
      2     -31.8638     -33.2053     -17.0132     -14.7269     -23.5104       0.5868       2.0000       0.4842
      3     -31.8502     -33.2000     -17.0310     -14.7319     -23.5100       0.5871       2.0000       0.4278
      4     -31.8502     -33.2000     -17.0310     -14.7319     -23.5100       0.5871       2.0000       0.4278
      5     -31.8502     -33.2000     -17.0310     -14.7319     -23.5100       0.5871       2.0000       0.4278
      6     -31.8463     -33.1839     -17.0279     -14.7287     -23.5234       0.5818       2.0000       0.4306
      7     -16.1693     -16.4863     -14.6526     -14.1538     -22.2077       0.6356       2.0000       1.1544
      8     -16.1693     -16.4863     -14.6526     -14.1538     -22.2077       0.6356       2.0000       1.1544
      9     -10.4633     -10.8233     -12.8983     -12.3624     -18.6520       0.6717       2.0000       0.8828
     10     -10.4633     -10.8233     -12.8983     -12.3624     -18.6520       0.6717       2.0000       0.8828
     11      -5.6370      -6.2420     -12.2518     -11.3850     -15.4002       0.6980       2.0000       0.2643
     12      -5.6370      -6.2420     -12.2518     -11.3850     -15.4002       0.6980       2.0000       0.2643
     13      -5.3466      -5.7149     -11.5169     -10.9893     -14.6892       0.6980       2.0000       0.3174
     14      -5.2361      -5.9632     -12.6468     -11.6059     -15.5964       0.6985       2.0000       0.1727
     15      -5.2361      -5.9632     -12.6468     -11.6059     -15.5964       0.6985       2.0000       0.1727
     16      -4.6318      -5.3171     -13.1249     -12.1496     -16.0297       0.7026       2.0000       0.1495
     17      -4.5391      -5.1509     -13.1535     -12.2832     -16.0312       0.7029       2.0000       0.1582
     18      -3.8407      -4.2336     -12.6577     -12.1126     -15.3260       0.7208       2.0000       0.2052
     19      -3.8407      -4.2336     -12.6577     -12.1126     -15.3260       0.7208       2.0000       0.2052
     20      -1.6692      -1.8599     -12.1025     -11.8354     -13.6142       0.7138       2.0000       0.0844
     21      -1.2666      -1.3452     -12.1429     -12.0335     -13.1222       0.7187       2.0000       0.0665
     22      -1.2666      -1.3452     -12.1429     -12.0335     -13.1222       0.7187       2.0000       0.0665
     23       0.7052       1.3892     -11.1156     -12.0663      -7.7927       0.7195       0.0000      -0.0909
     24       1.1578       1.8858     -11.4147     -12.4498      -7.8134       0.7033       0.0000      -0.1116
     25       1.2331       1.9405     -11.0243     -12.0393      -7.0084       0.6970       0.0000      -0.1365
     26       1.2331       1.9405     -11.0243     -12.0393      -7.0084       0.6970       0.0000      -0.1365
     27       3.2764       4.0900     -11.2530     -12.4086      -6.8708       0.7041       0.0000      -0.2056
     28       3.2764       4.0900     -11.2530     -12.4086      -6.8708       0.7041       0.0000      -0.2056
     29       3.4420       4.1762     -11.0127     -12.0367      -6.3088       0.7170       0.0000      -0.2941
     30       3.5374       4.2903     -10.9785     -12.0262      -6.0727       0.7185       0.0000      -0.3330
     31       4.0186       4.6971     -11.1511     -12.1015      -6.4593       0.7139       0.0000      -0.3363
     32       4.0186       4.6971     -11.1511     -12.1015      -6.4593       0.7139       0.0000      -0.3363
     33       5.0407       5.7131      -9.4388     -10.3452      -5.1160       0.7418       0.0000      -0.2432
     34       5.0407       5.7131      -9.4388     -10.3452      -5.1160       0.7418       0.0000      -0.2432
     35       6.5044       7.1274      -8.8580      -9.6676      -4.8218       0.7696       0.0000      -0.2656
     36       6.5833       6.9514      -5.5266      -5.9905      -2.4330       0.7935       0.0000      -0.1761
     37       6.5833       6.9514      -5.5266      -5.9905      -2.4330       0.7935       0.0000      -0.1761
     38       6.8376       7.1690      -5.2871      -5.7005      -2.3036       0.8018       0.0000      -0.1892
     39       6.8376       7.1690      -5.2871      -5.7005      -2.3036       0.8018       0.0000      -0.1892
     40       7.6316       7.8642      -3.3876      -3.6668      -1.2029       0.8332       0.0000      -0.1339
     41       7.7569       7.8837      -3.5990      -3.7492      -1.4877       0.8437       0.0000      -0.1275
     42       8.0090       8.5141      -7.3671      -8.0174      -3.4942       0.7767       0.0000      -0.3183
     43       8.0090       8.5141      -7.3671      -8.0174      -3.4942       0.7767       0.0000      -0.3183
     44       8.4416       8.1431      -1.9042      -1.5694      -0.5997       0.8915       0.0000      -0.0838
     45       8.4416       8.1431      -1.9042      -1.5694      -0.5997       0.8915       0.0000      -0.0838
     46       8.4830       8.9508      -8.4337      -9.0361      -3.9520       0.7765       0.0000      -0.4762
     47       9.0506       8.9899      -2.9945      -2.9241      -1.0957       0.8620       0.0000      -0.1575
     48       9.0680       9.1847      -4.3729      -4.5125      -1.8838       0.8356       0.0000      -0.2057


--------------------------------------------------------------------------------------------------------


  QP_SHIFT:  cpu time      1.2314: real time      2.4511
    GWLOOP:  cpu time  45565.9393: real time  47192.1516
  LATTYP: Found a hexagonal cell.
 ALAT       =     4.0284482012
 C/A-ratio  =     5.4475237845
  
  Lattice vectors:
  
 A1 = (   4.0284482012,   0.0000003874,  -0.0000000333)
 A2 = (  -2.0142237620,   3.4887388994,  -0.0000000572)
 A3 = (  -0.0000001265,  -0.0000005312,  21.9450673906)


Analysis of symmetry for initial positions (statically):
=====================================================================
 Subroutine PRICEL returns:
 Original cell was already a primitive cell.
 

 Routine SETGRP: Setting up the symmetry group for a 
 hexagonal supercell.


 Subroutine GETGRP returns: Found 12 space group operations
 (whereof 12 operations were pure point group operations)
 out of a pool of 24 trial point group operations.


The static configuration has the point symmetry D_3d.


Analysis of symmetry for dynamics (positions and initial velocities):
=====================================================================
 Subroutine PRICEL returns:
 Original cell was already a primitive cell.
 

 Routine SETGRP: Setting up the symmetry group for a 
 hexagonal supercell.


 Subroutine GETGRP returns: Found 12 space group operations
 (whereof 12 operations were pure point group operations)
 out of a pool of 24 trial point group operations.


The dynamic configuration has the point symmetry D_3d.


 Subroutine INISYM returns: Found 12 space group operations
 (whereof 12 operations are pure point group operations),
 and found     1 'primitive' translations

 writing wavefunctions
    --------------------------------------------
   GWTOTAL:  cpu time  45570.6664: real time  47201.0697
    4ORBIT:  cpu time      0.0000: real time      0.0000

 total amount of memory used by VASP MPI-rank0   281311. kBytes
=======================================================================

   base      :      30000. kBytes
   nonl-proj :      55736. kBytes
   fftplans  :       2618. kBytes
   grid      :       7225. kBytes
   one-center:         93. kBytes
   HF        :        388. kBytes
   nonlr-proj:       2578. kBytes
   wavefun   :      66072. kBytes
   fock_wrk  :     116601. kBytes
   2eintegral:          0. kBytes
   response  :          0. kBytes
 
  
  
 General timing and accounting informations for this job:
 ========================================================
  
                  Total CPU time used (sec):    45573.238
                            User time (sec):    35705.738
                          System time (sec):     9867.500
                         Elapsed time (sec):    47203.696
  
                   Maximum memory used (kb):     2354796.
                   Average memory used (kb):          N/A
  
                          Minor page faults:   -100407882
                          Major page faults:      4399965
                 Voluntary context switches:      5467011
